% Model:              CMSL_AJB_O2_20210227_AdptLKR.mph
% Version:            COMSOL 5.5.0.359
% Date:               Feb 28 2021, 01:00
% Dimension:          1
% Nodes:              1208
% Expressions:        1
% Description:        Line graph
% cln1x                   Height
0                         80.75178224726947
0.07644537880878488       80.75178456813671
0.8127602615697924        80.75180682767225
1.5333611862234306        80.75182190921983
1.691313091440577         80.75182510999839
1.8429681349171005        80.75182538674026
2.5419370262270036        80.7518263856307
3.2174618005118987        80.7518363834125
3.274558342129012         80.7518329983284
3.404895743775228         80.7518323857785
3.955876995275162         80.75180325425269
4.140306653069729         80.75180373574098
4.689754130582742         80.75172143119933
4.9906938820326445        80.75158043166587
5.457047219396202         80.75146244280788
5.655585384957362         80.75130253876301
6.129825952080182         80.7508506656788
6.526795916652645         80.75056852568746
7.013540003992716         80.75011673625622
7.396171616410868         80.74936492908995
7.98464101751739          80.74847652265852
8.354363779026244         80.74796500475776
9.000420925930882         80.746444720927
9.443002490288109         80.74535793090084
9.998298162578806         80.74382082064018
10.467453214465024        80.74229801748136
10.997184887368007        80.7408539673217
11.423543391872272        80.73920714595381
11.99901420936078         80.73635594115964
12.474907543775771        80.73404501682448
12.9889728045693          80.73123957826795
13.468372678326318        80.72851716331756
14.0151494739913          80.72579493257317
14.464274135202345        80.72283259088896
15.011120710228454        80.71918644812955
15.462006218028478        80.71585133569121
15.996249183457735        80.71089593715749
16.45760037942813         80.70659585474739
16.991022358406894        80.70242890010678
17.387868124577608        80.69749640298826
17.97390812048758         80.69065050720243
18.459738787339063        80.68677585650394
19.015126087754936        80.68165753352136
19.456953417825503        80.67640917523791
19.99122301803868         80.66900214879476
20.457522880578153        80.6628281000162
20.991816970559114        80.65598284828063
21.456958540726703        80.64955414617698
21.992082734458506        80.64208120844084
22.465177304545932        80.63516304282616
22.99468565551541         80.62699549936994
23.45601706578134         80.61888069711142
23.991781244174263        80.60999945861437
24.45108715582711         80.60191358273924
24.987735683116284        80.59192664942555
25.45481915394157         80.58360887873985
25.989499946149294        80.57371405743
26.454353436130077        80.56507689151849
26.987305351910095        80.55493104787263
27.455936879918227        80.54520745270379
27.98371566160165         80.53466188027589
28.460673446828764        80.52581728374673
28.986459129118657        80.51542460004538
29.434175488268124        80.50502356542765
29.98234061628682         80.49161650744256
30.45698550812233         80.48082696758749
30.98872887234228         80.46853906656445
31.466293792747194        80.45715727918522
31.985726064324012        80.44482471559144
32.460581488074354        80.43288973683137
32.98845594957436         80.42012129290438
33.499963982363624        80.41095982696882
33.98755619883059         80.3994422108272
34.4508611474314          80.38612693501152
34.97375599796976         80.37310551597494
35.433523469263946        80.3586263892979
36.030909973715666        80.3437263603688
36.49141286615696         80.3339074980792
37.01697752822918         80.31733595420904
37.48871948917213         80.30200351876267
37.99714710422535         80.28786476169438
38.46562238389396         80.27475184373448
38.995657682003184        80.2602781406851
39.4594829601063          80.24848980486718
39.97535304896587         80.23413268410964
40.447898666307765        80.22033208643816
40.94794976231981         80.2021979599005
41.45269734102067         80.18520618119533
41.98986735275395         80.17263658393102
42.450082874653674        80.1590900473284
42.9890934352357          80.1411066122026
43.45798373806025         80.12744744408744
44.014493317146815        80.113513730958
44.41013465787515         80.09504081940287
45.039189791509386        80.0745593350926
45.419577315822835        80.06726481759293
45.9517836630215          80.04896874317964
46.430818837314405        80.03476391478343
46.98057737818172         80.01790288676997
47.43891133224773         80.00310135247996
47.98868472333177         79.98202598886965
48.483664945387005        79.96839274038496
48.96861828489892         79.95567091042217
49.44980538344299         79.93774757249786
49.99164740172577         79.92078043609816
50.44263051062799         79.90614739929605
50.993197390963616        79.88643584811166
51.45691129547126         79.87100142340357
51.991035510655394        79.85283290491671
52.45760323359596         79.83719522817617
52.99103794092318         79.81941406357909
53.46998176026338         79.80484426655563
53.98965312332709         79.78782156870572
54.46449569876623         79.77105939482978
54.98873717373891         79.75328724487372
55.46071529750509         79.73694497069468
55.97994557701398         79.7190105564906
56.5014107003019          79.70524287452544
56.98917752660276         79.68891317797653
57.45927018372345         79.67025970352799
57.96441676910541         79.6525796245762
58.45811119115052         79.6339799106936
58.97699945457083         79.61572029048256
59.461074000348844        79.59788395485027
59.98269371781589         79.57954444680868
60.52304041236175         79.56680697572831
60.99924531228811         79.550622928063
61.459346302326026        79.5300439182774
61.96819794805447         79.5119826075581
62.47341238404846         79.49417662003951
62.98622994912057         79.47603490859095
63.457682705356206        79.45711036773233
63.99105189502359         79.43740942600802
64.45768715615668         79.42078245688107
65.00329127792327         79.40124115966537
65.45890950807319         79.38486174801731
66.04322665172725         79.36832357538968
66.46288717513107         79.35371652349637
66.99105464832667         79.32946931031827
67.45631318986682         79.31337162655711
67.98378545437663         79.29414316425988
68.44829493470456         79.27386229669733
68.99859810087469         79.25868260260374
69.42946540451305         79.24676012487977
69.99352637339246         79.22500993869036
70.42626308437178         79.20799944499625
70.99151590523553         79.18474775057567
71.45771301639945         79.16744876593602
71.97241865834104         79.14633187328802
72.42126092465628         79.12445619966387
73.02958623085601         79.10749273736268
73.44704349161344         79.09602734113207
73.9993910656134          79.07515088689883
74.42935210695066         79.05944837138203
74.9882889069367          79.03759219285686
75.43677127134242         79.02112332202816
75.98666799450729         79.00076582945476
76.42782936332429         78.98441026748837
77.02135639867714         78.96343573560931
77.46056789808563         78.94655992155096
78.02338308213194         78.92560816703316
78.46075874005152         78.9093428166929
78.99498492127509         78.89270478826339
79.39112415035277         78.87864957558847
79.99273073616695         78.85040482400197
80.45086680501265         78.83283797591267
81.02224203457922         78.81444587146147
81.46065278567045         78.79799873306573
82.02085216524421         78.77671064822071
82.46052223059792         78.76039306258454
82.99366190831842         78.74396113312702
83.39156668705658         78.72975435946388
83.99137135937207         78.70257454552103
84.44276629072874         78.68519090571694
84.99105836031458         78.66287226067058
85.46060442619762         78.64660117595686
86.00955454147282         78.6295463588811
86.45267276390007         78.61091750563175
87.03934353718859         78.59187194728966
87.44926522137337         78.57639781418382
87.97237324519335         78.54622641676912
88.54438952961164         78.53321797659808
89.0270039971989          78.52141152202235
89.43604602990285         78.49438598498769
90.05287370054725         78.47354714154056
90.44075791480816         78.46337400937517
90.98361585740713         78.436885172966
91.45561317221859         78.42176879549282
91.9615635584542          78.40395598005762
92.43944086785154         78.3848273258157
92.97457731108403         78.36314117937825
93.45204878335767         78.34605499194795
93.98494554759816         78.32929327922994
94.43810425388483         78.30788048939372
94.97841903163771         78.28841706076916
95.39639384410799         78.2751613092556
95.99400128187733         78.24914535282223
96.44287873649739         78.23095598679615
97.02248489452461         78.2109073414668
97.4233900579751          78.19245952162592
98.05526000890058         78.17013963300849
98.46066129239352         78.1558071918346
99.01587840049876         78.13160555914898
99.43062801729718         78.11958168194602
99.98622496287459         78.09846195295816
100.42366595032638        78.08168588211312
101.02421174210622        78.06011687569612
101.46084539255543        78.04333862220082
102.02330385825758        78.02182261568053
102.46075987428901        78.00494098654748
102.99485024070498        77.98783905106123
103.3934355389132         77.9733127449075
103.99273229019082        77.94481952304068
104.45087309134544        77.92720018923139
105.02421174116279        77.90871793876799
105.46084539342212        77.89207271016154
106.02330385772586        77.870642980899
106.46075987478451        77.85449679886781
106.99393287741202        77.83616453696624
107.40918929553163        77.82012104065882
107.99418481503687        77.79424234832821
108.44575184396928        77.77680532442463
109.01961021913735        77.75715552624828
109.45545478936049        77.74059200195735
110.02161344345745        77.71924567171679
110.4621978411709         77.70244622183324
110.99139295335698        77.68091432981014
111.43340506813934        77.66438919455321
111.99138826141376        77.64328787046979
112.43374698520773        77.62642834285236
112.99217091170277        77.60573483367448
113.43013755660166        77.58922637918545
113.99105925744198        77.56497853861458
114.45772257328576        77.54690435900733
114.98838571323938        77.52943484662467
115.42840765913456        77.51282979943662
116.00746049229139        77.49058143929842
116.45185533674328        77.47366264098056
116.99726481429946        77.45126593964316
117.45598356572953        77.43373024276818
118.01019579787373        77.41394198481926
118.46057008740331        77.39657942289182
119.01227208302055        77.37669600448265
119.47612937348174        77.36127160489643
119.98891412817238        77.33940186934106
120.49045264078632        77.3219659589335
120.98912886755318        77.3030561549051
121.48652322026771        77.28299919407432
121.99489805281843        77.26384007478292
122.45772257328571        77.24334676707831
122.99105925744135        77.22329576699984
123.45772257328565        77.20569209894921
124.00748512454527        77.18522254340064
124.47607161348935        77.16761264634329
125.00567693365804        77.1485999631867
125.45998221559773        77.13133567680151
125.9910592574413         77.10945171300399
126.45772257328565        77.09171895094931
126.9910592574413         77.0715209973707
127.45772257328565        77.05369104500076
127.99030536194857        77.03505808834458
128.44570676630042        77.01798920580417
129.00359566118823        76.9970364351756
129.4534121257425         76.9800756585849
129.99105925744124        76.95763285026058
130.45772257328548        76.94012657693257
130.99105925744118        76.92012306618665
131.45772257328542        76.90243489206405
131.99039214618801        76.88382013197004
132.447089958908          76.86670678558635
133.00419098270714        76.84613614139457
133.45320743369268        76.82909747969762
133.99105925744118        76.806549341715
134.45772257328537        76.78839362421061
134.99105925744112        76.76822100747484
135.46522164713684        76.75091051216882
135.99073749441231        76.73262893933385
136.47410927773865        76.71673935993132
137.003622882777          76.69691294338708
137.46154853982273        76.67680097554543
137.9918567732954         76.6546775770323
138.4929752989221         76.6393800714317
138.99473745423546        76.62077013086379
139.4538146761625         76.60220589649396
139.95386387732805        76.58286840496594
140.46656081234835        76.56197133813194
141.003001476465          76.54532565623272
141.46185398637033        76.52683378435397
141.99105925744084        76.50322203596438
142.433384920952          76.48328669545886
142.98390762666043        76.46548216818589
143.42077785782863        76.45233662849789
143.98618879583415        76.42871413692743
144.44013027163578        76.40893387708171
145.0074783973099         76.38713507578476
145.46396865669317        76.36850194663761
146.0481212198714         76.34790980850002
146.47718696501317        76.33630280543765
146.98998992116333        76.31451539438089
147.47711543361504        76.29723339590254
147.98568980092773        76.28009731229703
148.44719763956607        76.26016108010897
149.00338368812606        76.23953009367453
149.45348500938383        76.22193340769894
149.9910592574406         76.19942793551058
150.45772257328497        76.18151130835817
150.99105925744055        76.16136634270491
151.45772257328497        76.14408306464009
151.9903054387746         76.12567839918657
152.44341216667215        76.11034427531976
152.97399827626413        76.08797200820737
153.4517395999476         76.06375596128471
154.07351456049605        76.04631912301151
154.46654445683254        76.03523244765326
154.98833881835577        76.00858377917808
155.46544857437812        75.9922493622998
155.96456428769648        75.97777315240683
156.43842820470445        75.95994190431406
156.99171105567615        75.93908070509272
157.45464434529367        75.92232713625533
158.00808025352183        75.90193558078563
158.46393085365105        75.8828691744819
158.98120587921227        75.8644445438511
159.40950158234313        75.84787644103626
159.9953750601752         75.82233374324227
160.4564808099567         75.8048447236751
161.00554060410195        75.78505303490405
161.45669490125243        75.7681875240989
161.99105925744027        75.74616800191544
162.45399018518253        75.73032611470184
162.9712311137667         75.71147676992753
163.44379740666716        75.68945226686344
163.9938815939754         75.67001285237933
164.4474124167793         75.65547975358574
164.99105925744027        75.63322353562353
165.4577225732845         75.61567597105912
165.99105925744016        75.59575376945321
166.4577225732845         75.5776031288523
166.99105925744016        75.55756035538658
167.45772257328446        75.5400210796447
167.99771248721186        75.51965763393041
168.46717196567005        75.5022752457917
169.00887885421923        75.48379646359032
169.46106783299285        75.46721047827157
169.99105925744004        75.44540047699297
170.45772257328434        75.42791853771733
170.99105925744004        75.40850960666754
171.4577225732843         75.39093492214589
171.99105925743999        75.37080528946518
172.4577225732843         75.3531454821227
172.99105925744004        75.33291356200768
173.45772257328417        75.31527719708738
174.03122583178572        75.29819288004148
174.4607388097162         75.28263175811189
174.9910592574402         75.25798141322521
175.45772257328395        75.23996319317438
175.99105925744067        75.2203363214005
176.47448715894006        75.20399365379242
176.98860683610928        75.18573609029104
177.44593867996826        75.16651525003712
177.9888905438661         75.14658441623864
178.4453295897589         75.13000003552246
178.99105925744556        75.10795010300626
179.4577225732869         75.09024436585415
179.99105925744846        75.06982050649975
180.45772257328952        75.05210518369887
180.99105925745158        75.03253692154975
181.45772257329259        75.0150089389014
181.99105925745414        74.99492812905973
182.45772257329554        74.97736107719126
182.99105925745573        74.95728497858669
183.46302576151322        74.94164836388647
183.9764598930695         74.92296550920214
184.4750327674921         74.9044608864924
184.98961512787236        74.88494749393816
185.4651441120498         74.86788733823273
185.9984698620296         74.851500928378
186.4631048655463         74.83144052300095
186.9917973327489         74.81034759638372
187.43600850353096        74.79428773076546
187.99105925745567        74.77070669090078
188.45772257329946        74.7530630601928
189.00838984652927        74.73524172315368
189.45227993333896        74.71892282693071
189.99105925745545        74.6958701433751
190.4577225732993         74.67803467928817
191.0115867829914         74.65992663902438
191.46180899975622        74.64308764716623
191.99105925745533        74.62082169285753
192.45772257329912        74.60354423801866
192.99105925745528        74.58323914170698
193.44700099454377        74.56894966023933
193.94364894125948        74.55090293617154
194.47100401505998        74.52995929293849
194.98968217794413        74.51271165825244
195.44115139780592        74.49372235092152
195.99207127962995        74.47275986757674
196.43781283168147        74.45651427902396
196.99105925745488        74.43341702191749
197.45772257329878        74.41567572630456
197.99446407745103        74.39753245965336
198.44731104626146        74.38202167199732
198.9859779688257         74.36097186081066
199.4666256207592         74.34510560191856
199.9700837088966         74.32597725379422
200.47902008678284        74.3069812396079
200.97605275799407        74.28455157778448
201.4895841536494         74.26074687323313
201.99105925745448        74.24671258902681
202.45867568399456        74.23166059373621
202.95700099290866        74.20939838283192
203.46417292875935        74.19098715615348
203.96624947013623        74.17684867717867
204.4516156497309         74.15829056149826
205.00794527596656        74.13768611644898
205.46200164815673        74.11850119883368
206.01248896032837        74.09887315920105
206.45626590927992        74.0827712989003
206.99060430399345        74.062006161415
207.43406960082638        74.04587123140304
207.9910592574539         74.02271086457733
208.447892207201          74.00844949556307
208.9438795819492         73.99081318195131
209.45772257329764        73.9682473113255
209.9910592574538         73.94829508226566
210.45772257329753        73.93145420681286
210.99105925745368        73.9116466889536
211.45772257329747        73.89465298814949
211.99105925745368        73.87584912052358
212.45772257329742        73.85939534124248
212.9632528388849         73.8356898332321
213.46088137311563        73.81764432400485
213.99105925745351        73.80196450562282
214.42231066866992        73.77994353019866
214.9909850166482         73.75438581523646
215.51155582076774        73.74115865132316
215.99265942463416        73.7262601599735
216.4577225732972         73.70687390799564
216.9865679625787         73.69025222453101
217.41935107964173        73.6753484068077
217.99046857204758        73.65106650496713
218.45079875281192        73.63464945546154
218.9777774542353         73.61639531532664
219.44265340149815        73.59818752773802
219.991059257453          73.57585228886639
220.45772257329685        73.55838663320453
221.01496010875155        73.54055009242042
221.45505326387877        73.52368023825149
222.03345849573827        73.50431365299997
222.46276088654417        73.4888594750236
222.99105925745272        73.46466814320064
223.45772257329656        73.44727672790245
223.99105925745266        73.42770958738423
224.45772257329645        73.4105093510263
224.99105925745255        73.39068837924596
225.4577225732964         73.37362405576754
225.9910592574525         73.35302177929852
226.45772257329634        73.335309660186
227.02336440600004        73.31845422371963
227.4546591042003         73.30278351721606
228.02251197131994        73.28237398017777
228.4547399398383         73.2668065659866
228.9910592574522         73.2428661245385
229.45772257329605        73.225261422776
229.99105925745215        73.20579507419221
230.45772257329594        73.18823047489921
230.99105925745204        73.16830939272802
231.45772257329588        73.1514705804078
231.99105925745198        73.13203687156413
232.4577225732957         73.1147890656693
232.99105925745192        73.09525252225365
233.45772257329565        73.07801754590415
233.9910592574518         73.05822709885696
234.4577225732956         73.04061753307971
234.9974074555343         73.02326051075282
235.43766135995128        73.0068554654482
236.01199700805358        72.98488466939274
236.4592353722133         72.96813339178816
237.00929284268585        72.94796796147037
237.47202384467852        72.93317036837838
237.9939420934283         72.9116390211982
238.45436517661375        72.89449782310338
238.9651077283189         72.87608142725824
239.45772257329526        72.85563495825804
239.99105925745135        72.8358335149235
240.45772257329514        72.81890367822061
240.99294687599627        72.8020496851667
241.4324283799067         72.78616344075178
241.99262298011558        72.76025792368648
242.4747744573756         72.74452664178024
242.98836463649786        72.73008916637872
243.47438469276665        72.71240974260493
243.98165764849432        72.69162697043453
244.46182300211086        72.6729394467867
244.97630314021956        72.65414346061843
245.4692694250262         72.63622108005707
245.99224363718412        72.61716513450276
246.4577225732947         72.59781288056868
246.9910592574508         72.57779690622796
247.46180157999743        72.56091547071598
247.9913594618289         72.54101359912514
248.45570697095985        72.52425231024364
248.97298907946043        72.50758997732008
249.42430534973084        72.49011728712381
249.9946918769271         72.4686262540269
250.44387092555377        72.45413301591154
250.9786997520049         72.43219432713393
251.45519099118206        72.41240375813274
252.0145895053069         72.39463509160298
252.4392189753837         72.37825964108576
253.0304734451194         72.3592726700812
253.43750032824164        72.34443169831921
253.98105226352862        72.32255331030856
254.3892581371278         72.30889673456096
255.0208399425647         72.28412930281662
255.45984561686288        72.26769475561196
256.01426794908036        72.24850498446474
256.4468072729809         72.23279668220046
256.99105925744993        72.20910671787499
257.4577225732937         72.19213075475876
257.9910592574498         72.17279745180845
258.45772257329367        72.15534314775424
258.99105925744976        72.13618059090199
259.4585808880951         72.12102515840027
259.9714129590841         72.10232973832633
260.45857231981216        72.08443601767003
260.9716090818108         72.06606131735964
261.4575577015956         72.04591354900124
261.9826835761355         72.02647112841372
262.4908140280381         72.01095936734656
262.99644904316625        71.9923057089735
263.45772257329327        71.97170824635714
263.99979064141326        71.95442331769492
264.43412043941134        71.9392062003663
265.0240396718987         71.91814663834151
265.454575855097          71.90208432481387
266.0198130263592         71.8817393800943
266.44574995121263        71.86742344833185
266.97913889320245        71.84393848064428
267.4612459913644         71.82869032836763
267.95689404330346        71.8109884195049
268.46214912426115        71.7883673491996
268.9920472986279         71.76898546345201
269.47794933283456        71.75307558169102
269.9934642826674         71.73394387172102
270.4739816458317         71.71707560231377
270.9859611045398         71.6987261673001
271.46928539052755        71.68031915853835
271.98770219302406        71.66154428414009
272.46720541803217        71.64392827676478
272.98830607714024        71.62475020290164
273.46460430096806        71.6064456129261
273.98937596095834        71.5895750857651
274.41941806726777        71.57251955584164
274.99075825615466        71.55139129272906
275.4258111724729         71.53657637415017
275.9915306070181         71.51247373711668
276.45772257329224        71.49534752617718
276.9910592574483         71.47615098770892
277.4577225732922         71.4589981765447
277.9910592574482         71.43990247405225
278.4610583858416         71.42405724718664
278.98010666417184        71.40544507330388
279.457722573292          71.38660693999992
279.99105925744806        71.36674230958393
280.4647938937066         71.34984557909944
280.9905504202415         71.33054067794734
281.47253981505463        71.31371789348306
281.99522034247263        71.29667618143328
282.4388457864437         71.27926238934208
282.9977811690259         71.25903468899445
283.44661478442447        71.24292620153938
283.99937025258373        71.22097579787322
284.4763659372411         71.20516650038009
284.9844434674851         71.18725623340129
285.4304424613059         71.16640364790237
286.0493244917489         71.14524564782647
286.44310990957894        71.13340200385997
287.07463431354967        71.11487071590324
287.4650703742021         71.10122109840002
287.9910592574473         71.07417009404838
288.4577225732912         71.05650202799636
288.9910592574473         71.03734020672904
289.4577225732911         71.02041442450508
289.9966710511189         71.00119114616662
290.4581459756832         70.98742289837418
290.95768295384295        70.9692345837289
291.45772257329094        70.94779399341837
292.00869750939194        70.93057084917474
292.4479931365202         70.91362599010614
293.0029759079294         70.89029581384314
293.43529195345303        70.87174060722941
293.9979358145842         70.85074471973142
294.45499909808956        70.83971425420788
294.96463319854547        70.82205385800421
295.4577225732906         70.80121340218744
295.9910592574467         70.78105225596377
296.4848415986596         70.7676941390037
296.9792025527129         70.74951185613759
297.4586411147657         70.72712917341512
298.02668634685006        70.70929250819047
298.4608835739945         70.69112933648962
299.0303906282406         70.67578458301796
299.35883617978624        70.66857474829126
299.9842771216024         70.63881126632552
300.4578936986619         70.61910397664715
301.0087384945772         70.60129396597095
301.45238161911163        70.58473362789779
301.99105925744624        70.5627627120133
302.45772257329           70.54590577031271
303.0040480719222         70.52801604073255
303.4565260077548         70.51172551229162
303.9979239795891         70.49318620958208
304.44060533042955        70.47739298854161
304.991059257446          70.45518702719377
305.4577225732898         70.43809192471905
305.9910592574459         70.41898177817224
306.4577225732897         70.40268706961945
306.9910592574458         70.38347348505894
307.4408088423372         70.36551421331278
307.9790944593595         70.34624834837311
308.4521856405023         70.33122298868389
308.96699296960446        70.31288007639283
309.47071683735925        70.29495821985684
309.98484663986574        70.27630561693505
310.47902221163355        70.25932172210936
310.9868070265863         70.24112376374693
311.46993506811333        70.22257766326112
311.9865458035148         70.20395780455708
312.4692323356454         70.18649762711296
312.9868055170839         70.16772030113859
313.4577225732892         70.14889605545514
313.9910592574453         70.12932724599374
314.45772257328906        70.11258345730319
314.9910592574453         70.09334045073564
315.45772257328895        70.07650647320342
315.99105925744516        70.0572815316023
316.45772257328895        70.0405930772275
316.99105925744504        70.02093504651167
317.45772257328883        70.00412787707373
318.0009116562678         69.98583197922342
318.4588644918367         69.96943334956876
319.00449973144976        69.94762843163265
319.4766655013185         69.93016197168879
320.0079042678617         69.91409157421411
320.45084971710116        69.89843493787113
320.99223324379284        69.87802847940927
321.44077913579906        69.86175368682683
322.00331080666535        69.84143123221914
322.4672152142314         69.826806905624
323.00690887768485        69.80796460221121
323.46007892098453        69.78963383528333
323.9959541102045         69.76930661978878
324.4571360174866         69.75358224338576
324.9803575170125         69.73106132042736
325.482501646512          69.71291559615925
325.9814232662693         69.69535275588542
326.47157611034595        69.67550343683605
326.999995050042          69.65908710283404
327.45912571218037        69.64308902588745
327.99105925744414        69.62291048015439
328.4577225732879         69.60651311713654
328.99105925744414        69.58753498998223
329.4577225732879         69.5705039409828
329.9910592574439         69.55025219033068
330.4577225732878         69.53313887074347
331.05333850886484        69.51928431990241
331.4573060403469         69.50558401821732
331.9870181967533         69.48225873467354
332.4198834826253         69.46646369128277
333.0311769609357         69.44695521415414
333.45198950045767        69.43156973039237
333.99105925744357        69.4071320501867
334.4723372471417         69.39117616496783
335.0055770635339         69.37172467918593
335.48446140085673        69.3531726594165
335.9913263919607         69.33500468878705
336.45772257328724        69.317222836107