% Model:              CMSL_AJB_O2_20210227_AdptLKR.mph
% Version:            COMSOL 5.5.0.359
% Date:               Feb 28 2021, 01:01
% Dimension:          1
% Nodes:              1208
% Expressions:        1
% Description:        Line graph
% cln1x                   Height
0                         60.00000000000001
0.07644537880878488       60.000000290802255
0.8127602615697924        60.00000303541753
1.5333611862234306        60.00000146479369
1.691313091440577         60.00000097708461
1.8429681349171005        59.99999847140336
2.5419370262270036        59.9999861189847
3.2174618005118987        59.99998228444978
3.274558342129012         59.99997833363391
3.404895743775228         59.99997515775952
3.955876995275162         59.99993902308794
4.140306653069729         59.99993557455583
4.689754130582742         59.999855127413326
4.9906938820326445        59.99972892992835
5.457047219396202         59.99961762761387
5.655585384957362         59.99947699705959
6.129825952080182         59.99908006134138
6.526795916652645         59.99883103840904
7.013540003992716         59.9984348956689
7.396171616410868         59.99778330465186
7.98464101751739          59.997009819460686
8.354363779026244         59.9965641001448
9.000420925930882         59.99525043560165
9.443002490288109         59.99431142530029
9.998298162578806         59.99298496767346
10.467453214465024        59.99167286102721
10.997184887368007        59.99042589711453
11.423543391872272        59.989006735126225
11.99901420936078         59.98655411316973
12.474907543775771        59.98456552795552
12.9889728045693          59.98215340064144
13.468372678326318        59.9798134205885
14.0151494739913          59.977471983348394
14.464274135202345        59.97492719638427
15.011120710228454        59.971794819654406
15.462006218028478        59.96893094068348
15.996249183457735        59.964678548281505
16.45760037942813         59.9609890397778
16.991022358406894        59.95741147292226
17.387868124577608        59.95318096242229
17.97390812048758         59.947308829758406
18.459738787339063        59.94398297495608
19.015126087754936        59.939590632137296
19.456953417825503        59.93508902787691
19.99122301803868         59.92873771238658
20.457522880578153        59.92344347895348
20.991816970559114        59.91757319246012
21.456958540726703        59.91206105417092
21.992082734458506        59.90565350052155
22.465177304545932        59.89972234833231
22.99468565551541         59.89272046346068
23.45601706578134         59.88576506515077
23.991781244174263        59.87815210795109
24.45108715582711         59.87122144112849
24.987735683116284        59.86266195110323
25.45481915394157         59.85553276124766
25.989499946149294        59.84705231704405
26.454353436130077        59.8396499347364
26.987305351910095        59.83095487689923
27.455936879918227        59.82262257718718
27.98371566160165         59.81358543742989
28.460673446828764        59.80600551020243
28.986459129118657        59.79709930586567
29.434175488268124        59.78818729410131
29.98234061628682         59.776700681537974
30.45698550812233         59.76745597843491
30.98872887234228         59.756927956450646
31.466293792747194        59.74717650724212
31.985726064324012        59.73661045373958
32.460581488074354        59.72638557836378
32.98845594957436         59.715446630109724
33.499963982363624        59.70759534354538
33.98755619883059         59.69772785160596
34.4508611474314          59.68632215922272
34.97375599796976         59.6751667053897
35.433523469263946        59.66276503019898
36.030909973715666        59.650000021637936
36.49141286615696         59.64158675864395
37.01697752822918         59.62739316794505
37.48871948917213         59.614261057497316
37.99714710422535         59.60214987524399
38.46562238389396         59.590917726877656
38.995657682003184        59.578519651500194
39.4594829601063          59.56842124614104
39.97535304896587         59.55612338667845
40.447898666307765        59.54430248275693
40.94794976231981         59.52877247607496
41.45269734102067         59.51422057767576
41.98986735275395         59.50345229682321
42.450082874653674        59.491849498622585
42.9890934352357          59.47644812847269
43.45798373806025         59.46474942616956
44.014493317146815        59.45281413379994
44.41013465787515         59.43699655425094
45.039189791509386        59.41945515553439
45.419577315822835        59.413204440344764
45.9517836630215          59.39753551138043
46.430818837314405        59.385369717297685
46.98057737818172         59.37092884163337
47.43891133224773         59.35825236877534
47.98868472333177         59.340205829538796
48.483664945387005        59.32852896922579
48.96861828489892         59.317632336076706
49.44980538344299         59.302284685550184
49.99164740172577         59.287753487133045
50.44263051062799         59.275222011373714
50.993197390963616        59.258342546202016
51.45691129547126         59.24512518825546
51.991035510655394        59.2295667778019
52.45760323359596         59.21617556686485
52.99103794092318         59.20094885142826
53.46998176026338         59.18847148144561
53.98965312332709         59.17389433698267
54.46449569876623         59.15954101285334
54.98873717373891         59.144322591624444
55.46071529750509         59.13032870651052
55.97994557701398         59.114971932419905
56.5014107003019          59.103180515345606
56.98917752660276         59.08919764874648
57.45927018372345         59.07322633055873
57.96441676910541         59.05808757407404
58.45811119115052         59.04216238278367
58.97699945457083         59.02652755885174
59.461074000348844        59.01125587380562
59.98269371781589         58.99555307077329
60.52304041236175         58.98464362751261
60.99924531228811         58.970786252773934
61.459346302326026        58.95316833007605
61.96819794805447         58.93770404607031
62.47341238404846         58.92245881121171
62.98622994912057         58.9069258493159
63.457682705356206        58.89072424341037
63.99105189502359         58.87385704653726
64.45768715615668         58.85962171314781
65.00329127792327         58.84289143133293
65.45890950807319         58.828868450658696
66.04322665172725         58.81470668796751
66.46288717513107         58.80220037847326
66.99105464832667         58.7814442552378
67.45631318986682         58.767662311959256
67.98378545437663         58.7512011272391
68.44829493470456         58.73384089490743
68.99859810087469         58.720842272483914
69.42946540451305         58.71063341218921
69.99352637339246         58.69201376947948
70.42626308437178         58.67745179798295
70.99151590523553         58.65754829726438
71.45771301639945         58.6427394753311
71.97241865834104         58.624663960973436
72.42126092465628         58.60594070810576
73.02958623085601         58.59141607879545
73.44704349161344         58.58159925023072
73.9993910656134          58.56372847565306
74.42935210695066         58.55028674507494
74.9882889069367          58.53157823086944
75.43677127134242         58.517480883837614
75.98666799450729         58.500054991007296
76.42782936332429         58.48605494712367
77.02135639867714         58.468100906194714
77.46056789808563         58.45365619899074
78.02338308213194         58.43572269827834
78.46075874005152         58.42180054705965
78.99498492127509         58.407556835849064
79.39112415035277         58.39552562296684
79.99273073616695         58.37135332321611
80.45086680501265         58.356317991769416
81.02224203457922         58.34057463213061
81.46065278567045         58.32649767405889
82.02085216524421         58.30827788162444
82.46052223059792         58.29431208459891
82.99366190831842         58.28024578082676
83.39156668705658         58.26808590336592
83.99137135937207         58.2448262399524
84.44276629072874         58.229948649446975
84.99105836031458         58.21084875562371
85.46060442619762         58.19692292483779
86.00955454147282         58.182325601279985
86.45267276390007         58.16638415966316
87.03934353718859         58.150082909514786
87.44926522137337         58.1368398312889
87.97237324519335         58.11102577219464
88.54438952961164         58.099889125072416
89.0270039971989          58.08978260230061
89.43604602990285         58.066661548593935
90.05287370054725         58.048826651531954
90.44075791480816         58.04011839548645
90.98361585740713         58.01745392152362
91.45561317221859         58.00451738019002
91.9615635584542          57.98927423183264
92.43944086785154         57.9729063753192
92.97457731108403         57.95435070902893
93.45204878335767         57.939730298902795
93.98494554759816         57.92538642578904
94.43810425388483         57.907067007933044
94.97841903163771         57.89041151649809
95.39639384410799         57.879067888690614
95.99400128187733         57.85680965261064
96.44287873649739         57.84124748157837
97.02248489452461         57.82409295549925
97.4233900579751          57.808310805134056
98.05526000890058         57.789213138803845
98.46066129239352         57.77695016164656
99.01587840049876         57.75624494895088
99.43062801729718         57.7459558186128
99.98622496287459         57.72788696425261
100.42366595032638        57.71353450940312
101.02421174210622        57.69508122073125
101.46084539255543        57.68072734935346
102.02330385825758        57.66232072672298
102.46075987428901        57.64787905147554
102.99485024070498        57.633246182318636
103.3934355389132         57.62081850018541
103.99273229019082        57.596446603591666
104.45087309134544        57.581374412993654
105.02421174116279        57.5655623884517
105.46084539342212        57.551323726527286
106.02330385772586        57.532992533162364
106.46075987478451        57.519180835876064
106.99393287741202        57.503497842972045
107.40918929553163        57.48977452647627
107.99418481503687        57.467640465557494
108.44575184396928        57.45272580052497
109.01961021913735        57.43591727125684
109.45545478936049        57.42174983720179
110.02161344345745        57.403491639420395
110.4621978411709         57.389122811108805
110.99139295335698        57.37070699754544
111.43340506813934        57.35657297850633
111.99138826141376        57.33852517671746
112.43374698520773        57.32410577017431
112.99217091170277        57.3064069010672
113.43013755660166        57.29228778737519
113.99105925744198        57.271551883282555
114.45772257328576        57.25609480482931
114.98838571323938        57.24115309630434
115.42840765913456        57.226952405398556
116.00746049229139        57.20792603319568
116.45185533674328        57.19345740600418
116.99726481429946        57.174305423361545
117.45598356572953        57.15930983067707
118.01019579787373        57.14238749204945
118.46057008740331        57.12754046131899
119.01227208302055        57.11053715276562
119.47612937348174        57.09734633944534
119.98891412817238        57.07864722358912
120.49045264078632        57.06373728148655
120.98912886755318        57.047568286223544
121.48652322026771        57.03041923674054
121.99489805281843        57.01403719465298
122.45772257328571        56.99651634762061
122.99105925744135        56.97937194800937
123.45772257328565        56.964320869114104
124.00748512454527        56.94681942330526
124.47607161348935        56.93176343343942
125.00567693365804        56.915507605356396
125.45998221559773        56.90074750389312
125.9910592574413         56.882038826283974
126.45772257328565        56.86687871652449
126.9910592574413         56.84961124954199
127.45772257328565        56.83436876162552
127.99030536194857        56.8184387388772
128.44570676630042        56.803846867723585
129.00359566118823        56.785935029940696
129.4534121257425         56.771435980923265
129.99105925744124        56.752252123426345
130.45772257328548        56.737287191304304
130.99105925744118        56.720187977431344
131.45772257328542        56.705068416209194
131.99039214618801        56.68915593094234
132.447089958908          56.67452797557173
133.00419098270714        56.656944852726355
133.45320743369268        56.64238120155408
133.99105925744118        56.62310980517545
134.45772257328537        56.607592243710506
134.99105925744112        56.59035079332869
135.46522164713684        56.57555561308381
135.99073749441231        56.55992999713899
136.47410927773865        56.54634870312137
137.003622882777          56.529404261978314
137.46154853982273        56.51221721583641
137.9918567732954         56.49331136654268
138.4929752989221         56.48023620700086
138.99473745423546        56.46433247506861
139.4538146761625         56.44846820403003
139.95386387732805        56.43194333780038
140.46656081234835        56.41408705654458
141.003001476465          56.39986092485904
141.46185398637033        56.38406012745511
141.99105925744084        56.36388567277643
142.433384920952          56.346853118899915
142.98390762666043        56.331637387391766
143.42077785782863        56.32040337793936
143.98618879583415        56.300220442545914
144.44013027163578        56.28332108286836
145.0074783973099         56.26469623456358
145.46396865669317        56.24877710005348
146.0481212198714         56.23118241294129
146.47718696501317        56.22126310389187
146.98998992116333        56.20265040058757
147.47711543361504        56.18788505483418
147.98568980092773        56.17324416795548
148.44719763956607        56.156213773865964
149.00338368812606        56.138588498627385
149.45348500938383        56.12355653897087
149.9910592574406         56.10433191990087
150.45772257328497        56.08902692606753
150.99105925744055        56.071818449018565
151.45772257328497        56.05705460302843
151.9903054387746         56.04133234056975
152.44341216667215        56.028233078179504
152.97399827626413        56.00912503738325
153.4517395999476         55.98844431172662
154.07351456049605        55.97354725309072
154.46654445683254        55.96407546170749
154.98833881835577        55.941318060371366
155.46544857437812        55.92736637679121
155.96456428769648        55.91500031143851
156.43842820470445        55.899771352461265
156.99171105567615        55.88195462011641
157.45464434529367        55.86764635933266
158.00808025352183        55.85023165746437
158.46393085365105        55.8339499507686
158.98120587921227        55.81821435022976
159.40950158234313        55.804065744566515
159.9953750601752         55.78225505829285
160.4564808099567         55.76732067285157
161.00554060410195        55.75041970773187
161.45669490125243        55.73601792938866
161.99105925744027        55.71721669276709
162.45399018518253        55.70368881571762
162.9712311137667         55.687593931306495
163.44379740666716        55.66879089767581
163.9938815939754         55.65219177155392
164.4474124167793         55.639782007509595
164.99105925744027        55.62078083362551
165.4577225732845         55.605799187990975
165.99105925744016        55.58879032008284
166.4577225732845         55.57329486382311
166.99105925744016        55.55618370989737
167.45772257328446        55.54121024564192
167.99771248721186        55.523826144849124
168.46717196567005        55.508987052255215
169.00887885421923        55.49321146177048
169.46106783299285        55.4790525087725
169.99105925744004        55.460435692829094
170.45772257328434        55.44551288864622
170.99105925744004        55.42894504029336
171.4577225732843         55.41394379537043
171.99105925743999        55.39676193957321
172.4577225732843         55.3816887948038
172.99105925744004        55.36442040538331
173.45772257328417        55.34936791952461
174.03122583178572        55.33478433441267
174.4607388097162         55.32150265484834
174.9910592574402         55.30046671083567
175.45772257328395        55.285089515636656
175.99105925744067        55.268339218704355
176.47448715894006        55.25439163975921
176.98860683610928        55.23881029912181
177.44593867996826        55.222408717896556
177.9888905438661         55.20539995294636
178.4453295897589         55.19124739685152
178.99105925744556        55.172432576239444
179.4577225732869         55.157324361010026
179.99105925744846        55.139897280054456
180.45772257328952        55.124781554077636
180.99105925745158        55.10808439601232
181.45772257329259        55.09312889885231
181.99105925745414        55.07599549846311
182.45772257329554        55.061007186677635
182.99105925745573        55.04387865523021
183.46302576151322        55.03053685066965
183.9764598930695         55.01459726669261
184.4750327674921         54.99881029218154
184.98961512787236        54.98216336497272
185.4651441120498         54.967609340107785
185.9984698620296         54.95362884939778
186.4631048655463         54.93651737329196
186.9917973327489         54.918524056147625
187.43600850353096        54.90482422771848
187.99105925745567        54.88471077569206
188.45772257329946        54.869661292008175
189.00838984652927        54.85445872105871
189.45227993333896        54.84053923727847
189.99105925745545        54.820878116583664
190.4577225732993         54.80566646911931
191.0115867829914         54.79022082618333
191.46180899975622        54.77585914290349
191.99105925745533        54.756870543342835
192.45772257329912        54.74213519458579
192.99105925745528        54.72481904859361
193.44700099454377        54.712631227884856
193.94364894125948        54.69724091846979
194.47100401505998        54.67938169174259
194.98968217794413        54.664672418719285
195.44115139780592        54.64848088672358
195.99207127962995        54.63060539369662
196.43781283168147        54.616752499794316
196.99105925745488        54.59705904395912
197.45772257329878        54.58193199529661
197.99446407745103        54.566461000874
198.44731104626146        54.55323494378964
198.9859779688257         54.535288442542175
199.4666256207592         54.52175971020698
199.9700837088966         54.50545182855517
200.47902008678284        54.48925640009174
200.97605275799407        54.470136118080624
201.4895841536494         54.44984484643194
201.99105925745448        54.43787848674576
202.45867568399456        54.42504564090256
202.95700099290866        54.406070113481285
203.46417292875935        54.39037537920468
203.96624947013623        54.378320944047545
204.4516156497309         54.36250268110604
205.00794527596656        54.344939606259615
205.46200164815673        54.328588510124
206.01248896032837        54.311857689227445
206.45626590927992        54.29813345747185
206.99060430399345        54.280435088959116
207.43406960082638        54.26668287357981
207.9910592574539         54.24694525808747
208.447892207201          54.23478951129354
208.9438795819492         54.21975881043076
209.45772257329764        54.2005295503031
209.9910592574538         54.183526045134855
210.45772257329753        54.169174373982
210.99105925745368        54.15229513951557
211.45772257329747        54.13781398358016
211.99105925745368        54.12179000595114
212.45772257329742        54.10776887081623
212.9632528388849         54.087572585117755
213.46088137311563        54.07219652788103
213.99105925745351        54.0588348316569
214.42231066866992        54.04007573172886
214.9909850166482         54.01830264634555
215.51155582076774        54.007031082858155
215.99265942463416        53.99433693437449
216.4577225732972         53.97782226898046
216.9865679625787         53.96365973982054
217.41935107964173        53.95096205216859
217.99046857204758        53.93027796723876
218.45079875281192        53.916292548992374
218.9777774542353         53.90074201239209
219.44265340149815        53.885232535537476
219.991059257453          53.86620816938795
220.45772257329685        53.85133150925049
221.01496010875155        53.83613762806969
221.45505326387877        53.8217694107951
222.03345849573827        53.805272939866164
222.46276088654417        53.79210993207082
222.99105925745272        53.77150826785387
223.45772257329656        53.7566965050879
223.99105925745266        53.740031962448796
224.45772257329645        53.72538354820694
224.99105925745255        53.70850377041157
225.4577225732964         53.69397169686716
225.9910592574525         53.67642794981992
226.45772257329634        53.661345740606244
227.02336440600004        53.64699071242225
227.4546591042003         53.63364671676336
228.02251197131994        53.61626731097218
228.4547399398383         53.60301154269243
228.9910592574522         53.582628930165846
229.45772257329605        53.56763995564484
229.99105925745215        53.55106591447574
230.45772257329594        53.53611177929734
230.99105925745204        53.519151671647954
231.45772257329588        53.50481545837925
231.99105925745198        53.48827057204975
232.4577225732957         53.473587244538834
232.99105925745192        53.45695574721308
233.45772257329565        53.442284173339495
233.9910592574518         53.42543746596856
234.4577225732956         53.41044816969135
234.9974074555343         53.39567210051742
235.43766135995128        53.38170844173107
236.01199700805358        53.36300786708182
236.4592353722133         53.34875005682628
237.00929284268585        53.33158642537879
237.47202384467852        53.318990734155534
237.9939420934283         53.300666809532885
238.45436517661375        53.286078290540694
238.9651077283189         53.27040471707263
239.45772257329526        53.2530051476098
239.99105925745135        53.23615375149443
240.45772257329514        53.22174669587438
240.99294687599627        53.20740252100918
241.4324283799067         53.193883612099484
241.99262298011558        53.17184281706962
242.4747744573756         53.15845603175066
242.98836463649786        53.14616934305211
243.47438469276665        53.13112638253257
243.98165764849432        53.11344416378373
244.46182300211086        53.09754486098093
244.97630314021956        53.08155285620018
245.4692694250262         53.066304636559614
245.99224363718412        53.05009220560618
246.4577225732947         53.03362981625749
246.9910592574508         53.01660178987838
247.46180157999743        53.002240636547775
247.9913594618289         52.985310791094
248.45570697095985        52.97105273138821
248.97298907946043        52.956877662835446
249.42430534973084        52.942015384130805
249.9946918769271         52.92373496336302
250.44387092555377        52.91140606081681
250.9786997520049         52.89274722496472
251.45519099118206        52.87591608871775
252.0145895053069         52.860802423408536
252.4392189753837         52.84687572842407
253.0304734451194         52.83072630828467
253.43750032824164        52.81810470887584
253.98105226352862        52.799498566559976
254.3892581371278         52.787884044702615
255.0208399425647         52.766822655973684
255.45984561686288        52.752847447280594
256.01426794908036        52.7365285980097
256.4468072729809         52.72317095795043
256.99105925744993        52.703028795546025
257.4577225732937         52.68859403517389
257.9910592574498         52.67215549896645
258.45772257329367        52.65731526653134
258.99105925744976        52.64102253221087
259.4585808880951         52.62813622920405
259.9714129590841         52.612241903146845
260.45857231981216        52.597029296907394
260.9716090818108         52.58140787597849
261.4575577015956         52.56428135392494
261.9826835761355         52.54775324930318
262.4908140280381         52.534565748619826
262.99644904316625        52.5187093228678
263.45772257329327        52.501202767795476
263.99979064141326        52.48650881168738
264.43412043941134        52.47357402005491
265.0240396718987         52.45567365641311
265.454575855097          52.442021943336144
266.0198130263592         52.42472978737654
266.44574995121263        52.41256144064619
266.97913889320245        52.39260364854572
267.4612459913644         52.379643343249356
267.95689404330346        52.36459941974315
268.46214912426115        52.3453777528487
268.9920472986279         52.32890662799293
269.47794933283456        52.31538598925197
269.9934642826674         52.29912896828425
270.4739816458317         52.28479485116259
270.9859611045398         52.2692027789065
271.46928539052755        52.25356275178815
271.98770219302406        52.23760993401025
272.46720541803217        52.22264256480928
272.98830607714024        52.206348373314135
273.46460430096806        52.1907975637948
273.98937596095834        52.176463246750735
274.41941806726777        52.16197396664147
274.99075825615466        52.144024164495086
275.4258111724729         52.13143796140913
275.9915306070181         52.110964592501524
276.45772257329224        52.09641634251978
276.9910592574483         52.080109545816796
277.4577225732922         52.06553942680331
277.9910592574482         52.04931889952398
278.4610583858416         52.03585962281926
278.98010666417184        52.02005088476585
279.457722573292          52.004051212387694
279.99105925744806        51.987179695172195
280.4647938937066         51.97282929485184
280.9905504202415         51.956433999272086
281.47253981505463        51.94214692593918
281.99522034247263        51.92767333673505
282.4388457864437         51.912885709117425
282.9977811690259         51.895707933656155
283.44661478442447        51.882028984372326
283.99937025258373        51.863390638097776
284.4763659372411         51.849965890579085
284.9844434674851         51.834758046039305
285.4304424613059         51.817054636654696
286.0493244917489         51.799089041934735
286.44310990957894        51.789032001654355
287.07463431354967        51.77329600839607
287.4650703742021         51.761706789562126
287.9910592574473         51.73874400120003
288.4577225732912         51.723745004808904
288.9910592574473         51.70747785316949
289.4577225732911         51.69310910214845
289.9966710511189         51.67679077961714
290.4581459756832         51.66510179660911
290.95768295384295        51.64966253945827
291.45772257329094        51.63146464241915
292.00869750939194        51.616843832550835
292.4479931365202         51.60246193843814
293.0029759079294         51.58266136473147
293.43529195345303        51.566914538150726
293.9979358145842         51.549094868782234
294.45499909808956        51.5397307713931
294.96463319854547        51.52474254014509
295.4577225732906         51.50705763733363
295.9910592574467         51.489948856631145
296.4848415986596         51.47861091403693
296.9792025527129         51.46318209356576
297.4586411147657         51.4441915042891
298.02668634685006        51.42905556259031
298.4608835739945         51.413645114966585
299.0303906282406         51.400621790309486
299.35883617978624        51.39450174112088
299.9842771216024         51.36925154234914
300.4578936986619         51.352532901038145
301.0087384945772         51.33742141229146
301.45238161911163        51.323371910445765
301.99105925744624        51.304733452085074
302.45772257329           51.29043297041073
303.0040480719222         51.275255858689455
303.4565260077548         51.26143658341465
303.9979239795891         51.24570925384426
304.44060533042955        51.232312371905024
304.991059257446          51.213477384353595
305.4577225732898         51.19897730972773
305.9910592574459         51.18276824933059
306.4577225732897         51.16894723953955
306.9910592574458         51.1526513408321
307.4408088423372         51.13742062115874
307.9790944593595         51.121080899145554
308.4521856405023         51.10833732763678
308.96699296960446        51.09278139299715
309.47071683735925        51.077582792192985
309.98484663986574        51.061765192301735
310.47902221163355        51.04736264487579
310.9868070265863         51.03193119672894
311.46993506811333        51.0162056605025
311.9865458035148         51.000417268288906
312.4692323356454         50.98561290753658
312.9868055170839         50.969692054680415
313.4577225732892         50.95373276103029
313.9910592574453         50.937141663046376
314.45772257328906        50.92294615228162
314.9910592574453         50.906631948095445
315.45772257328895        50.89236079183137
315.99105925744516        50.8760628097003
316.45772257328895        50.86191549997113
316.99105925744504        50.845251634375245
317.45772257328883        50.83100457783241
318.0009116562678         50.8154951776828
318.4588644918367         50.80159507939387
319.00449973144976        50.78311438960316
319.4766655013185         50.76831061786928
320.0079042678617         50.75468826941344
320.45084971710116        50.741418393094996
320.99223324379284        50.724123541714924
321.44077913579906        50.710330737133646
322.00331080666535        50.69310778653661
322.4672152142314         50.68071336276644
323.00690887768485        50.66474559667541
323.46007892098453        50.649212667170204
323.9959541102045         50.63198779388807
324.4571360174866         50.61866262271068
324.9803575170125         50.59958173142118
325.482501646512          50.58420687982467
325.9814232662693         50.56932583069186
326.47157611034595        50.55250951313189
326.999995050042          50.538599550469115
327.45912571218037        50.52504521058906
327.99105925744414        50.50794997506575
328.4577225732879         50.49405803831297
328.99105925744414        50.47798014951999
329.4577225732879         50.46355281291954
329.9910592574439         50.44639805209165
330.4577225732878         50.431902087231336
331.05333850886484        50.42016255266395
331.4573060403469         50.40855706670656
331.9870181967533         50.38880113690514
332.4198834826253         50.375422917910605
333.0311769609357         50.35889815048147
333.45198950045767        50.345867225157434