% Model:              CMSL_AJB_O2_20210227_AdptLKR.mph
% Version:            COMSOL 5.5.0.359
% Date:               Feb 28 2021, 00:42
% Dimension:          1
% Nodes:              231
% Expressions:        1
% Description:        Line graph
% cln1x                   Height
0                         22.383175864591617
3.4498422708584258        22.370326117021605
4.843949893982199         22.374009652034903
6.239899662009293         22.36742162569927
9.68815065086153          22.3727191088223
13.132421693181982        22.352435839889687
14.533433280994188        22.35325093448293
15.93485437910897         22.343816929473654
19.38013270234353         22.34175339310192
22.832428094463808        22.31434898078196
24.22764681433273         22.312393884499254
25.619680204505073        22.300402395122326
29.0770222856778          22.291345392464915
32.55672000993735         22.257190385577175
33.925362340997026        22.252732935194235
35.28279061582407         22.238714413117112
38.770921938271385        22.223113616706808
42.29598252248269         22.1825968112929
43.60767031907301         22.176123166340915
44.90412439924606         22.160764046243624
48.43813071457302         22.13921083086004
52.00490201991926         22.093002360840657
53.26037272405088         22.08495869052327
54.507372387473396        22.06851670885508
58.05657148537841         22.04168502274297
61.616995567573554        21.991079990762085
62.859464845796936        21.98148678012975
64.14545279687638         21.96300586014919
67.67870425540241         21.931922827676903
70.99584444932316         21.880887169589887
72.5596898608934          21.86710871681288
74.26115750178633         21.84068045179473
77.50041652275081         21.809094149373113
80.48305247918063         21.75917797644762
82.44551496090384         21.740217663538864
84.32205853884892         21.709956173985283
87.48748871522116         21.67584115821452
91.10338881756616         21.61521768260899
92.44003024101886         21.60092685017772
93.65784372948696         21.580191675042553
97.42203877443501         21.536575929881735
101.73180549440701        21.463541791761514
102.05693139030456        21.45877445185107
102.78992523632655        21.446621861043212
106.75497864267948        21.394884752411954
108.80233216922335        21.360682969448437
110.86156712695163        21.3332123716694
112.99498064095468        21.29627238180182
114.94059924725752        21.271226122236452
117.37186172052986        21.228401781556425
119.03565899144371        21.206541223319128
120.36806635006349        21.18235447811896
123.47627136427008        21.141634501112083
127.99030721392182        21.060126759177432
128.10212346307685        21.058682549861167
128.27647040467053        21.055532487633076
132.72578790966998        20.99448865510024
135.44701241902544        20.944594636455598
137.47738583879834        20.917089843681122
140.97369980176256        20.852797149084353
142.53917904593965        20.83086247914416
143.34155495718232        20.815839785423353
147.6636447569109         20.74835351532382
148.83405635055573        20.7264332821186
151.6712898733797         20.686946054941696
155.60119446888086        20.614243975376702
156.60429372265435        20.599426693238048
161.67457684565403        20.51445679892197
162.408970304254          20.50270831857102
167.47861832320666        20.41752469331982
168.24402426068718        20.405174242788622
173.37640248043306        20.31954745440272
174.24103459980302        20.30545885879216
179.16602945917555        20.224356091791414
180.5758987911076         20.20189543663796
185.4158312724864         20.11479267853397
185.62957136708127        20.11140211056397
191.47354288718157        20.01190500218616
191.78112244896545        20.006974853292093
197.74047841725644        19.905294910823066
197.89587121341208        19.90272695618107
203.2028358746586         19.817055763959267
204.40866103405563        19.79717615305938
209.52955403554643        19.70727831065297
210.2741402707344         19.6951530639179
215.72102026914132        19.600554434651094
216.41605404886633        19.589245344394467
221.98552933538457        19.492973323530762
222.42657062375935        19.48580171854278
227.80440590060095        19.394513615360605
228.38310735953252        19.385049671156963
233.6484327730074         19.29474433213451
234.17645072934613        19.286022349609286
239.4922268100641         19.197604211266075
240.70933635940122        19.177960502794335
246.3858577417676         19.07593941630896
246.55236615570948        19.073306634454642
247.96165466166758        19.048695336179605
252.69565221979417        18.971767945965926
253.15055509243564        18.963119702289355
258.1784211432872         18.875675196005936
258.2367880947371         18.874737259651532
258.45303448177435        18.87058351578206
263.62117981348655        18.788020822203062
265.0336651499739         18.764622925552917
269.91033613158754        18.67926755965883
270.6505993741782         18.667415677548234
275.934019528936          18.576454761313133
276.5332946507195         18.56673314544864
281.71102646014526        18.47979702240324
282.5351906992895         18.466403011894926
287.614580358937          18.380785743652087
288.46390097268977        18.36688617187266
293.34488815284203        18.28663860047397
294.7753505031605         18.26356989714867
299.2908639344895         18.185709825363205
300.328071626423          18.169298564313518
305.6031267114346         18.079519208352483
306.3720818863375         18.06738113974053
311.8279785696034         17.974422393151873
312.4956023133808         17.96384542196757
318.04501652423664        17.870434795864583
318.5074368009863         17.86318172936761
324.1557098218575         17.768857903235112
324.4094025769051         17.764894276842124
329.9438580381759         17.673729354652533
330.11071299996763        17.671097179242178
335.7203555257224         17.577890681186474
335.94921029503814        17.57426538064501
341.60021467435695        17.48480354344164
342.37912715394157        17.472624167068442
347.8291905240245         17.382723587880594
348.40909266082633        17.373810720290393
353.97696430252915        17.28239827627178
354.35598369299714        17.276608087477204
359.99317056009863        17.18493014547356
360.18155050273583        17.18204497641147
365.6684873763096         17.094635377939202
366.0485662459039         17.08881272744484
371.5934141781645         16.999677220194087
371.97344583054223        16.993920653247688
377.54469799999003        16.906017029380003
377.88504851278765        16.90087035428056
383.55952304848336        16.812434827704447
384.22088325912694        16.80227757049973
389.2397692897906         16.72659652215229
390.55501771356285        16.70703852348876
395.4193968804643         16.627438572768554
395.8619876586498         16.621002081032138
401.17790807782353        16.538911020587083
401.77062394138693        16.53017101534022
406.89429664087197        16.452523134138357
407.75725589969227        16.439861700487782
412.8532828039373         16.361773646282778
413.7330648651881         16.3489817945076
418.90339072582117        16.27341726817378
420.20344319657215        16.25509202455139
425.20743972638013        16.177059724986457
425.74225501547653        16.169536787059386
431.2408952804674         16.091149175134724
432.53422939491145        16.073397006128896
437.7458953143497         15.992700702663448
437.94236024330337        15.99007943770216
443.85599708706275        15.90402618953756
443.95192616886493        15.902746662912664
446.935936694695          15.86046094979071
449.6111151219203         15.823501505654685
449.69430685626924        15.822303007241215
454.882254914953          15.752193970816041
455.076792685075          15.749162865350359
458.5533689752831         15.699866368162073
460.33276317764467        15.675847895524976
460.42245211239083        15.674746009125691
460.6080907787567         15.67186705021796
465.33258712383406        15.619393034791921
469.227039967461          15.557276482794908
469.8629835248622         15.550697627326365
470.4295890651649         15.54214029063005
474.5186027487355         15.497896802115067
479.1838015934268         15.427258567996889
479.21280286440526        15.426966216867216
479.23958138540434        15.426576449479507
483.93876353385133        15.378617840749216
488.5926413921701         15.31021086541059
488.7125370939789         15.308974183314998
488.83401947695666        15.30717271522546
493.4542647738891         15.263138754045944
497.93375458367075        15.200026765504091
498.1781347624244         15.197670301278153
498.42069750606913        15.194268257099225
502.8846929459097         15.15395529395296
507.0208062702902         15.099560021448386
507.79913604917317        15.09317736627868
508.9848826605561         15.077424707798448
512.5566391808296         15.047680244642637
515.275657853276          15.01068261796312
517.502144010293          14.99543090203666
519.6011613107045         14.968760592049986
522.431980064132          14.948431329028322
525.6776530377033         14.907677730371265
527.3159460541787         14.897269302468125
528.8666932162016         14.879137240839801
532.187573870725          14.858100598070624
535.6169311262483         14.818339605867626
537.032297283015          14.810587899030528
538.4535385511565         14.79533965693231
541.8799493789287         14.777038553111122
545.2977229201813         14.741156934870139
546.736000879548          14.734701890756774
548.1571181338207         14.720989436825235
551.5775211332971         14.706464242278088
555.0314692206346         14.674158885285
556.4124088189615         14.66947103439058
557.7892810420985         14.657765144312283
561.247858234459          14.647116097755898
564.6991290132607         14.619065443838466
566.0896519833852         14.615975760269137
567.4847190178467         14.605822660883133
570.935050535717          14.599588394508928
574.3704857390092         14.576186901405727
575.7834907740496         14.574840118281335
577.1992385115004         14.566399171370874
580.6314998162957         14.564917839874624
584.0620859361075         14.546414803715098
585.4772500986826         14.546971120196094
586.8903437117522         14.54049459200735
590.3199999660774         14.54393183116766
593.7586861206241         14.530410516196367
595.1602505295967         14.532901168564425
596.5575843539634         14.528460594612673
600                       14.536923871498598
