% Model:              CMSL_AJB_O2_20210227_AdptLKR.mph
% Version:            COMSOL 5.5.0.359
% Date:               Feb 28 2021, 00:48
% Dimension:          1
% Nodes:              231
% Expressions:        1
% Description:        Line graph
% cln1x                   Height
0                         18.123779958957076
3.4498422708584258        18.111179875919035
4.843949893982199         18.114887518259593
6.239899662009293         18.108522944051426
9.68815065086153          18.114199473138374
13.132421693181982        18.094787699039674
14.533433280994188        18.095874441558266
15.93485437910897         18.086908134972813
19.38013270234353         18.085840413919918
22.832428094463808        18.059911321916385
24.22764681433273         18.058466256792133
25.619680204505073        18.0471704942146
29.0770222856778          18.039706206904302
32.55672000993735         18.007609699238355
33.925362340997026        18.00387584975668
35.28279061582407         17.99074685587926
38.770921938271385        17.977313350352098
42.29598252248269         17.93941593660974
43.60767031907301         17.933834836932466
44.90412439924606         17.919510635982604
48.43813071457302         17.900672750258643
52.00490201991926         17.8576047521732
53.26037272405088         17.850589450024586
54.507372387473396        17.835304841880177
58.05657148537841         17.811671839947437
61.616995567573554        17.76464104581122
62.859464845796936        17.75622166055037
64.14545279687638         17.7390857916104
67.67870425540241         17.711608656359548
70.99584444932316         17.664277530708937
72.5596898608934          17.65215466087052
74.26115750178633         17.627690950740117
77.50041652275081         17.59976433504409
80.48305247918063         17.553494657414426
82.44551496090384         17.536816199773934
84.32205853884892         17.508896634148112
87.48748871522116         17.478675658767262
91.10338881756616         17.422772435782143
92.44003024101886         17.410160563165395
93.65784372948696         17.391050353428486
97.42203877443501         17.35239493074512
101.73180549440701        17.28529732681269
102.05693139030456        17.280982740927314
102.78992523632655        17.269868227320366
106.75497864267948        17.22364149631455
108.80233216922335        17.192378866328454
110.86156712695163        17.167849960758996
112.99498064095468        17.134058049822062
114.94059924725752        17.11181737346459
117.37186172052986        17.072632849242506
119.03565899144371        17.053228958558616
120.36806635006349        17.031083630997134
123.47627136427008        16.995015576815003
127.99030721392182        16.9205186122773
128.10212346307685        16.919244002749544
128.27647040467053        16.916368518848852
132.72578790966998        16.862236603554393
135.44701241902544        16.816712148128563
137.47738583879834        16.792399512784517
140.97369980176256        16.733789692367253
142.53917904593965        16.714368626416643
143.34155495718232        16.700674367617236
147.6636447569109         16.640255870090257
148.83405635055573        16.6202957856292
151.6712898733797         16.585473176471066
155.60119446888086        16.51940987410743
156.60429372265435        16.506262564231317
161.67457684565403        16.42991541876754
162.408970304254          16.419412790095908
167.47861832320666        16.34295813447938
168.24402426068718        16.33192391692635
173.37640248043306        16.25523704823912
174.24103459980302        16.242653911898987
179.16602945917555        16.170218139669768
180.5758987911076         16.150236346370544
185.4158312724864         16.07177629919623
185.62957136708127        16.06876510526658
191.47354288718157        15.979762216109531
191.78112244896545        15.975383320768643
197.74047841725644        15.884501669653526
197.89587121341208        15.882215048169066
203.2028358746586         15.806211567033113
204.40866103405563        15.788532287787346
209.52955403554643        15.708073054524315
210.2741402707344         15.697315457404402
215.72102026914132        15.612817956476698
216.41605404886633        15.602793928338187
221.98552933538457        15.51691102813709
222.42657062375935        15.510559710225545
227.80440590060095        15.42934873493496
228.38310735953252        15.420967236277477
233.6484327730074         15.340582111313658
234.17645072934613        15.332853055344707
239.4922268100641         15.25448015147725
240.70933635940122        15.23713297946549
246.3858577417676         15.145925379085103
246.55236615570948        15.143607715810424
247.96165466166758        15.121686804170125
252.69565221979417        15.053768228213357
253.15055509243564        15.045994985317357
258.1784211432872         14.968174222924413
258.2367880947371         14.967347963314765
258.45303448177435        14.963611333430965
263.62117981348655        14.89093233327717
265.0336651499739         14.870238432215109
269.91033613158754        14.794273122263382
270.6505993741782         14.783839267727055
275.934019528936          14.70306134679909
276.5332946507195         14.694490462812515
281.71102646014526        14.617537827682709
282.5351906992895         14.605728884904643
287.614580358937          14.529920504240314
288.46390097268977        14.517656737034802
293.34488815284203        14.446833417468179
294.7753505031605         14.426520061488626
299.2908639344895         14.357401177993895
300.328071626423          14.34298656629578
305.6031267114346         14.263411783807193
306.3720818863375         14.25275368356101
311.8279785696034         14.170347767958269
312.4956023133808         14.161055425147207
318.04501652423664        14.0783659760521
318.5074368009863         14.072001577335815
324.1557098218575         13.988575117248777
324.4094025769051         13.985098361331794
329.9438580381759         13.90458968936746
330.11071299996763        13.902277353068465
335.7203555257224         13.819856160531286
335.94921029503814        13.816668772311
341.60021467435695        13.738028351422455
342.37912715394157        13.727335058815282
347.8291905240245         13.647861833686347
348.40909266082633        13.640051280385952
353.97696430252915        13.559255673050894
354.35598369299714        13.554183311298738
359.99317056009863        13.47321160511127
360.18155050273583        13.47068188445558
365.6684873763096         13.393642541736183
366.0485662459039         13.388534002400561
371.5934141781645         13.309837137646682
371.97344583054223        13.304790779176857
377.54469799999003        13.227314486126957
377.88504851278765        13.22280033729565
383.55952304848336        13.144919663301229
384.22088325912694        13.135985040235177
389.2397692897906         13.06957041000503
390.55501771356285        13.052424454683518
395.4193968804643         12.981773970464262
395.8619876586498         12.976142359529659
401.17790807782353        12.903735062410018
401.77062394138693        12.896065024834009
406.89429664087197        12.827668267534921
407.75725589969227        12.816550555466709
412.8532828039373         12.747587185877926
413.7330648651881         12.736353157916415
418.90339072582117        12.66993554381478
420.20344319657215        12.65388457776239
425.20743972638013        12.584624970468115
425.74225501547653        12.578026216853091
431.2408952804674         12.509129076283704
432.53422939491145        12.493580727846325
437.7458953143497         12.42177990523836
437.94236024330337        12.419488169844291
443.85599708706275        12.343356035118468
443.95192616886493        12.34223496396543
446.935936694695          12.30487136668617
449.6111151219203         12.272320537982905
449.69430685626924        12.27125879127732
454.882254914953          12.209556110256464
455.076792685075          12.206840600620394
458.5533689752831         12.163092643174188
460.33276317764467        12.141908653832347
460.42245211239083        12.140947267938921
460.6080907787567         12.13835992226397
465.33258712383406        12.093226043225513
469.227039967461          12.037148545055095
469.8629835248622         12.031534632418762
470.4295890651649         12.02383528568004
474.5186027487355         11.985720311850024
479.1838015934268         11.922028977982611
479.21280286440526        11.92177893266272
479.23958138540434        11.921427996338016
483.93876353385133        11.88021263572958
488.5926413921701         11.818424870086234
488.7125370939789         11.81735727224977
488.83401947695666        11.815725072822193
493.4542647738891         11.777992627365691
497.93375458367075        11.720917354064891
498.1781347624244         11.71888746528917
498.42069750606913        11.715804523971526
502.8846929459097         11.681236284154263
507.0208062702902         11.632075887233027
507.79913604917317        11.62665355822474
508.9848826605561         11.612342800110442
512.5566391808296         11.586891244586381
515.275657853276          11.553108087605983
517.502144010293          11.540400036042152
519.6011613107045         11.51607925967499
522.431980064132          11.498883512630952
525.6776530377033         11.461619326835358
527.3159460541787         11.45291712393309
528.8666932162016         11.436353640512921
532.187573870725          11.418636670081247
535.6169311262483         11.382178536369661
537.032297283015          11.375745035267009
538.4535385511565         11.361770945942155
541.8799493789287         11.346502201866212
545.2977229201813         11.313501043626728
546.736000879548          11.308215623945186
548.1571181338207         11.295600645637542
551.5775211332971         11.283680097544764
555.0314692206346         11.253838849217976
556.4124088189615         11.250098311270625
557.7892810420985         11.239273339432138
561.247858234459          11.230800454212593
564.6991290132607         11.204737181436778
566.0896519833852         11.20241324641258
567.4847190178467         11.192957185364854
570.935050535717          11.188409249427425
574.3704857390092         11.166487136484504
575.7834907740496         11.16571687019727
577.1992385115004         11.157775629441103
580.6314998162957         11.157465379315239
584.0620859361075         11.139920750772733
585.4772500986826         11.140844234296999
586.8903437117522         11.134652499438188
590.3199999660774         11.138735849830102
593.7586861206241         11.125641696889119
595.1602505295967         11.128282182856866
596.5575843539634         11.123907993408029
600                       11.132483093071178
