% Model:              CMSL_AJB_O2_20210227_AdptLKR.mph
% Version:            COMSOL 5.5.0.359
% Date:               Feb 28 2021, 01:00
% Dimension:          1
% Nodes:              282
% Expressions:        1
% Description:        Line graph
% cln1x                   Height
0                         36.91401898050548
0.38753430215217577       36.91250305555905
3.988685588050714         36.918061827660026
7.652522058023521         36.894807811300545
8.063649874010366         36.89433870082529
8.412992674900806         36.891251330161865
12.285197674031451        36.87798818202052
15.664604913608684        36.840950085023636
16.74409301282776         36.83496720175708
18.927329877927036        36.80696621805599
21.505486985557866        36.78469876737334
22.60680165541646         36.76798925562768
26.710817679384263        36.72378897306629
29.031451327805314        36.687955823083136
32.068238732177235        36.64102547179683
33.67469263873056         36.61315277557988
35.93121051203923         36.581921138751866
39.407700279356675        36.51556604262744
40.46546327779589         36.49958736758551
45.03786148765727         36.41145309577451
45.54923479751429         36.40252150640786
45.65650154033034         36.4002942282486
50.844719662281165        36.30590390086383
51.987981181045654        36.28155891475896
56.24100689392651         36.20458025890157
58.334513143730135        36.156976325758826
60.88850835589392         36.109815134732806
64.4997022476158          36.02985863304774
65.99682049340106         36.00169375491372
70.65654110223295         35.89721788849612
70.93566356873134         35.89202728691737
71.97036244443944         35.868705440082856
75.84585119160931         35.79181846196948
76.89511848761947         35.766860774018184
80.71368041061214         35.690521026299905
83.05500728404672         35.63531630824773
85.62335799178697         35.58388657397923
89.09926087632687         35.50338829998093
90.62361848715307         35.472722023256935
94.94178416258251         35.37341364521553
95.81519122358026         35.35586371052155
98.60965944184227         35.288993983965625
100.64539325690248        35.247374790270676
101.37572678185501        35.22901450433387
105.39046764285581        35.14784315277518
107.80195184153098        35.08940346678195
109.64110688670905        35.0519953526257
112.36972668496844        34.984692505222974
113.85592116316673        34.95432178678422
115.21803882676159        34.919405287180474
117.72072558845997        34.87168733181292
121.29362775156255        34.78160821581058
122.19341664331245        34.76318851299815
122.6361286159829         34.75281646657421
127.06435693588736        34.652601128116395
127.28921980316011        34.64709604739165
130.71730330307457        34.572277189861005
131.30354984007147        34.557619738136765
133.77558841177506        34.50493905339176
135.1183606777539         34.475047068866694
138.5375914708947         34.39467365946868
139.79769588989927        34.368512461227965
143.12397878475872        34.288880411828096
143.32980486220526        34.28456566369047
143.46861142798338        34.281095669714254
146.72871556032533        34.21367081164451
148.687779063856          34.16484969571597
150.1753718274639         34.13355515345729
153.16261531680027        34.06496591866385
154.45963091397942        34.03367389254136
157.52850611412384        33.968411318679074
159.6652245722447         33.916883015418584
161.92743376355793        33.86840393772957
164.97886812235384        33.796304870939345
166.6885918809926         33.75996820158366
169.56054436111407        33.68771228059997
171.0263795299286         33.657136547609
172.39798615571522        33.6224480324032
175.500821918503          33.55983590489041
179.66901584017626        33.45550070097362
179.97770456043264        33.448948243763866
180.21713962956449        33.44290902487478
184.48604013588624        33.35623295493617
187.25589850385307        33.28869406501622
188.72963407419957        33.253905324993845
191.22572716558165        33.19810366771604
193.00604959622638        33.15943718943227
196.5284213859436         33.071410287513274
197.5701218069509         33.05031502504397
198.58936087589893        33.0251362648208
202.13285334023465        32.95266260201987
204.2527896976698         32.89797469992327
206.51629858291244        32.853623138633374
210.9875446146384         32.74239941150621
211.104836308524          32.739914194826476
211.50660091302484        32.73024100440627
215.64768645532075        32.642085134959984
216.83913598088674        32.612496296529365
220.10214467522286        32.54420172823791
222.7209281164608         32.47923929173992
224.58311340018747        32.440337909621974
227.6155382917849         32.37005618161007
229.04040066808778        32.335981394979115
231.12430961652774        32.29251886035073
234.39588040815642        32.21098409988127
235.09524468797605        32.19695399231664
235.82436993208364        32.17890692685387
239.14323639947276        32.111424441181505
241.5358033190173         32.051630726789035
243.28164410950836        32.016940618274056
246.16084314223826        31.944822308480067
247.35983953694034        31.920469448444845
248.07946628120044        31.9020400916355
251.14427782989196        31.839497281454964
254.48371594681095        31.757496866814247
255.08277411402906        31.745122793339654
255.63778623596846        31.730817604782242
258.7605594781021         31.669818807959977
262.2274771120402         31.581373647077957
262.42976525190886        31.577375586855098
262.7233771556398         31.570309305667795
266.14025869314156        31.501339946846805
269.70873743167516        31.41344323973821
269.7389892837878         31.412825456336066
269.764499032537          31.412201582604446
273.2111019423972         31.34398105249858
275.53945332469704        31.286205598517718
277.1303344768634         31.254202241615744
280.99030716303844        31.161518929938726
281.0620194192959         31.160082497171608
281.62381995794794        31.14700842768512
285.5815567672403         31.060287751328932
285.98972655570344        31.051713110310633
286.703309105471          31.033752098434377
290.2522321115823         30.963711169085695
292.8634895820874         30.898103724979794
293.9150329715904         30.87702646557035
295.0335665027984         30.84913770564534
297.7883966461195         30.794451290915685
300.29495212835405        30.734257347318987
301.7142239520984         30.705895922355882
303.53969548832845        30.660163994560378
306.0460337304693         30.612315422976675
308.0613476178084         30.563968833781153
310.4494930812944         30.514511666934794
313.9573730726481         30.428504155103866
314.975560528459          30.408729565584668
315.64480432068535        30.392903297969987
320.0213873929714         30.30356563171514
322.25284664983974        30.24995075145421
324.5672266242851         30.203804065852108
328.69820322042176        30.10337077511335
329.15076004424           30.094732028260456
329.4330640592718         30.088004568476467
333.5411215448105         30.00787650920663
336.9783063176418         29.923887963736934
337.8603541346354         29.9066017761327
338.7840416412673         29.883554592011194
342.0367848807191         29.821711895865967
345.42137614191086        29.7393545561473
346.12785636207843        29.725379513994138
346.63179832242236        29.71293501017769
350.2394530680266         29.642786973838096
352.5492589952331         29.58748893181164
354.4191509765843         29.548357201513273
357.0153864550945         29.494405760401143
360.46183077779085        29.413073766223523
360.9123604705568         29.40417280875686
361.2814249612884         29.395243539144577
365.04507844051193        29.322213997137077
367.34248668589555        29.26774028402886
369.2619158683052         29.22821311272455
371.9365533911191         29.17218825716354
375.1821824760349         29.096088673385694
375.8061165470074         29.083984799318404
376.2902735735187         29.072351636906827
380.1219136268503         28.99956959726499
382.892469814029          28.933511883843554
384.42148709338653        28.905152409956774
388.13203353499364        28.81939321732762
388.74006422154343        28.807608602983077
388.96305628215566        28.8023993996137
393.03813011266527        28.722460574626194
394.4300254177633         28.69008322575573
397.1947881116906         28.63689686019075
399.7416683416195         28.578879939835527
401.35031378657436        28.548106392241547
404.8426186277858         28.47004736461753
405.64426925314945        28.45511784309818
409.2269862112844         28.37417497036273
410.02416706278154        28.358736802467657
410.2223291824097         28.35395698633958
414.20424737855944        28.280066806296485
416.10065659114696        28.235742604381493
418.5140410710767         28.19217795276424
421.25696840426656        28.128604273383445
422.4239792068265         28.106444035692952
423.5013311384937         28.081503187346264
426.1066421834548         28.034355163731874
429.8606518801839         27.948390730133628
429.9527076245033         27.946774107771137
430.149458826656          27.94238747470846
433.9129863802053         27.873215458538063
435.493257669144          27.837474037312308
437.8846486559902         27.79414839130377
441.1721918367018         27.720871780735926
442.01248627240136        27.70584768405464
446.0721547275466         27.61856727070263
446.95597852571757        27.601373615540492
447.1001540661805         27.59850420579874
447.3420591055112         27.593076267988717
451.84303167858127        27.51378123453155
455.2663816525519         27.438582930234638
456.3737632662743         27.4196540432632
457.6868179028129         27.3910203333705
460.2748042633983         27.345097275922253
462.0240843789686         27.307800763187327
464.08701797186154        27.271832586912698
467.7566399240561         27.19397399660882
468.0754947245306         27.188473827221042
471.81204309653833        27.11296166009283
472.74843381662197        27.094872296941443
472.8141457185485         27.09367644895033
472.9116925774414         27.09156568819762
476.9107634357173         27.023965363634222
480.48053082117406        26.950026629000106
480.93830650774726        26.942376048685816
481.35272869456526        26.933307496731608
485.06289939951137        26.872622348438018
487.49811795765345        26.821841912651646
488.88462728458694        26.79891448094227
490.1455893952477         26.773869292667765
491.8746820868562         26.74314164994472
493.846715529201          26.70619189082665
495.22163356382634        26.68339025297573
497.14674580566304        26.644839192972185
500.30180804273834        26.5967093811149
503.23791508259035        26.539037407763765
505.5490053931029         26.502671957128708
508.64774288218246        26.441396955822444
510.2202771886821         26.41851852773492
511.4593942223047         26.394950213605874
514.7611640502902         26.3470539535059
517.823084780086          26.289439385566105
519.260246062986          26.269165954133673
520.9192987406748         26.23940394257423
523.7474014882779         26.19931098258764
526.3284926794639         26.152169238602085
528.1908904731289         26.12723339340277
529.8491632556222         26.09923864929836
532.8035312728706         26.060383082599987
537.1256859933247         25.988194522260553
537.1859765080012         25.987456079972535
537.2208900636526         25.9869173278898
541.5223156072849         25.93420750920316
543.1790518155738         25.908923633729426
545.4146643861085         25.878544264020437
547.3837564768722         25.85504831967047
550.2668435283267         25.814408694157212
550.8506921221122         25.807808244253216
553.0577714266765         25.783234827844602
556.7840437759146         25.73436048231985
557.2311955427705         25.729478557565415
557.3551058871528         25.728100217510402
557.699435581723          25.723620527948817
562.7856487893126         25.67993974901546
565.1106974732177         25.655960632381024
568.7968570449011         25.624447046094144
572.2572727411316         25.590027519918486
573.9355405151639         25.578126834402376
578.3820239703684         25.539497278477
578.5473026443767         25.5385025931396
579.0420240014595         25.534885405913073
583.1836776524624         25.51811857685601
584.8604398951622         25.50775568670443
587.7124448892355         25.499979389659917
591.8195996325644         25.479411601821894
591.9755455677042         25.47919731304697
592.1704926678215         25.47845181899792
596.0368925259077         25.479312640841602
599.6231721875484         25.469469875554392
600                       25.47000052233066
