% Model:              CMSL_AJB_O2_20210222_AdptLKR.mph
% Version:            COMSOL 5.5.0.359
% Date:               Feb 22 2021, 18:21
% Dimension:          1
% Nodes:              282
% Expressions:        1
% Description:        Line graph
% cln1x                   Height
0                         8.37722971554949
0.38753430215217577       8.376032365219906
3.988685588050714         8.38277596350576
7.652522058023521         8.366648257432711
8.063649874010366         8.366805004844451
8.412992674900806         8.364819700631616
12.285197674031451        8.361680367529484
15.664604913608684        8.338851019440542
16.74409301282776         8.336803667390116
18.927329877927036        8.320130876649658
21.505486985557866        8.310495594262783
22.60680165541646         8.300830559149448
26.710817679384263        8.280760513266348
29.031451327805314        8.26156497576363
32.068238732177235        8.236189233658044
33.67469263873056         8.22117194772354
35.93121051203923         8.206957377450328
39.407700279356675        8.170137905423504
40.46546327779589         8.162631836095155
45.03786148765727         8.115395062069432
45.54923479751429         8.111003027198809
45.65650154033034         8.109819905149541
50.844719662281165        8.06381363973097
51.987981181045654        8.051068326042206
56.24100689392651         8.01531475161356
58.334513143730135        7.989546691828147
60.88850835589392         7.9679145643573
64.4997022476158          7.926258084940448
65.99682049340106         7.9134485237098495
70.65654110223295         7.8594200195512816
70.93566356873134         7.857146725077008
71.97036244443944         7.845202463091512
75.84585119160931         7.810620010232395
76.89511848761947         7.797626474586304
80.71368041061214         7.763590710979566
83.05500728404672         7.735360129737992
85.62335799178697         7.712747518915752
89.09926087632687         7.672624674153755
90.62361848715307         7.659274560374084
94.94178416258251         7.610685006712524
95.81519122358026         7.603179804994033
98.60965944184227         7.569517356132962
100.64539325690248        7.551917602625972
101.37572678185501        7.542428109411063
105.39046764285581        7.508924819577918
107.80195184153098        7.479838474030279
109.64110688670905        7.464407068993587
112.36972668496844        7.430420029972447
113.85592116316673        7.4181157206538035
115.21803882676159        7.400076855849032
117.72072558845997        7.382685599271342
121.29362775156255        7.336909723630515
122.19341664331245        7.329564466395424
122.6361286159829         7.324740616475777
127.06435693588736        7.279553327824732
127.28921980316011        7.276887133253204
130.71730330307457        7.244835539144949
131.30354984007147        7.237601374134151
133.77558841177506        7.215879878891998
135.1183606777539         7.202824162709043
138.5375914708947         7.165835418927918
139.79769588989927        7.155484167508835
143.12397878475872        7.118263438042283
143.32980486220526        7.116557679921599
143.46861142798338        7.114869982531875
146.72871556032533        7.088817060909791
148.687779063856          7.065160169822241
150.1753718274639         7.052894647668323
153.16261531680027        7.022653357545844
154.45963091397942        7.008172050496402
157.52850611412384        6.982285143784195
159.6652245722447         6.958540317263731
161.92743376355793        6.9391914755525
164.97886812235384        6.906853873502017
166.6885918809926         6.892592496916755
169.56054436111407        6.857977800972645
171.0263795299286         6.846465683465138
172.39798615571522        6.829842836958122
175.500821918503          6.807530746683424
179.66901584017626        6.758155145775711
179.97770456043264        6.75564530643013
180.21713962956449        6.75277987000033
184.48604013588624        6.72195976413884
187.25589850385307        6.691044156424807
188.72963407419957        6.67578087791225
191.22572716558165        6.652895898746773
193.00604959622638        6.637754907945658
196.5284213859436         6.596633452527978
197.5701218069509         6.589231552258088
198.58936087589893        6.577642026207023
202.13285334023465        6.55199295269103
204.2527896976698         6.5257312705264106
206.51629858291244        6.511215733133422
210.9875446146384         6.459911944277536
211.104836308524          6.458980283437573
211.50660091302484        6.454689032123062
215.64768645532075        6.421637297185158
216.83913598088674        6.408075935486389
220.10214467522286        6.3831946866256635
222.7209281164608         6.3535021587171725
224.58311340018747        6.339391659735643
227.6155382917849         6.309836257645845
229.04040066808778        6.2949156074537855
231.12430961652774        6.279300848572353
234.39588040815642        6.241949912168422
235.09524468797605        6.237235903962194
235.82436993208364        6.229038229529884
239.14323639947276        6.205913057414748
241.5358033190173         6.178504889350938
243.28164410950836        6.167100787082815
246.16084314223826        6.133987557312511
247.35983953694034        6.1256954956700085
248.07946628120044        6.117037225325251
251.14427782989196        6.095536710003895
254.48371594681095        6.058773848380828
255.08277411402906        6.05444561950916
255.63778623596846        6.047689203557624
258.7605594781021         6.0284523764352285
262.2274771120402         5.987155438244706
262.42976525190886        5.985861313806921
262.7233771556398         5.982775562678055
266.14025869314156        5.959645636692344
269.70873743167516        5.920200764127344
269.7389892837878         5.919988685755382
269.764499032537          5.9197110983919545
273.2111019423972         5.897693873917191
275.53945332469704        5.871580414675996
277.1303344768634         5.860902783437596
280.99030716303844        5.820613517682083
281.0620194192959         5.820137415280505
281.62381995794794        5.8146726517836385
285.5815567672403         5.781350729799785
285.98972655570344        5.778279114278197
286.703309105471          5.7700343469831035
290.2522321115823         5.747573259947666
292.8634895820874         5.717527936752618
293.9150329715904         5.710583404207545
295.0335665027984         5.697921568782805
297.7883966461195         5.680177120991629
300.29495212835405        5.6540124995742795
301.7142239520984         5.644720476971001
303.53969548832845        5.6238514288893455
306.0460337304693         5.6095167241047275
308.0613476178084         5.588522379730601
310.4494930812944         5.57119729075913
313.9573730726481         5.532881732407366
314.975560528459          5.52671877319313
315.64480432068535        5.5199610134347665
320.0213873929714         5.489382964525201
322.25284664983974        5.466031991937821
324.5672266242851         5.450924887889672
328.69820322042176        5.40653974959768
329.15076004424           5.403935228649671
329.4330640592718         5.401030443357679
333.5411215448105         5.375794773079853
336.9783063176418         5.338424796348615
337.8603541346354         5.33293967464481
338.7840416412673         5.322434488511704
342.0367848807191         5.303905136424265
345.42137614191086        5.267386425587201
346.12785636207843        5.262850831510285
346.63179832242236        5.257236788942424
350.2394530680266         5.2351135094511445
352.5492589952331         5.211032463892936
354.4191509765843         5.196873860362228
357.0153864550945         5.177624440986302
360.46183077779085        5.14269812569783
360.9123604705568         5.139794879047155
361.2814249612884         5.135845166333552
365.04507844051193        5.11272552875991
367.34248668589555        5.089170013058307
369.2619158683052         5.075139927960361
371.9365533911191         5.054730277701958
375.1821824760349         5.022118666274787
375.8061165470074         5.018271991995209
376.2902735735187         5.013137872787993
380.1219136268503         4.990838735526434
382.892469814029          4.961876801568657
384.42148709338653        4.953554539165853
388.13203353499364        4.917249887095718
388.74006422154343        4.913468917843116
388.96305628215566        4.9112327149927095
393.03813011266527        4.884804248734661
394.4300254177633         4.8709341696755635
397.1947881116906         4.8538798032062624
399.7416683416195         4.8295879725918045
401.35031378657436        4.81975355110223
404.8426186277858         4.787734716024046
405.64426925314945        4.783177967189278
409.2269862112844         4.749353121635339
410.02416706278154        4.7442803606059005
410.2223291824097         4.742118551305962
414.20424737855944        4.719623715553341
416.10065659114696        4.700196885286675
418.5140410710767         4.687573714261057
421.25696840426656        4.659817328666687
422.4239792068265         4.652685322818066
423.5013311384937         4.641781862986699
426.1066421834548         4.62783405875489
429.8606518801839         4.590537025989022
429.9527076245033         4.590082840722363
430.149458826656          4.588228689333769
433.9129863802053         4.5667825286833175
435.493257669144          4.551384557847975
437.8846486559902         4.538147397794338
441.1721918367018         4.506907002142577
442.01248627240136        4.502366604392436
446.0721547275466         4.466502096515367
446.95597852571757        4.460414620128636
447.1001540661805         4.45936381148704
447.3420591055112         4.456993581173969
451.84303167858127        4.433347963743085
455.2663816525519         4.401072811826597
456.3737632662743         4.395652770644445
457.6868179028129         4.383316394246329
460.2748042633983         4.369038867482911
462.0240843789686         4.353360153292563
464.08701797186154        4.342289766345551
467.7566399240561         4.309383823346834
468.0754947245306         4.30768438064618
471.81204309653833        4.277291456249724
472.74843381662197        4.270467896703167
472.8141457185485         4.270062179831998
472.9116925774414         4.269128540104859
476.9107634357173         4.248646283857948
480.48053082117406        4.217094144738858
480.93830650774726        4.214819120583227
481.35272869456526        4.210673150833521
485.06289939951137        4.192690802754937
487.49811795765345        4.170338381664864
488.88462728458694        4.163137347222095
490.1455893952477         4.152539361068449
491.8746820868562         4.141515691298316
493.846715529201          4.126811497942125
495.22163356382634        4.119450188104479
497.14674580566304        4.102569751905267
500.30180804273834        4.088842323786223
503.23791508259035        4.063315157621583
505.5490053931029         4.052018818183537
508.64774288218246        4.024104116566468
510.2202771886821         4.017625322623647
511.4593942223047         4.006986761851268
514.7611640502902         3.993069444742377
517.823084780086          3.966922992684337
519.260246062986          3.9609148601232893
520.9192987406748         3.947575684318559
523.7474014882779         3.9352140557232556
526.3284926794639         3.9131640184712744
528.1908904731289         3.9056950351380553
529.8491632556222         3.8930408556406895
532.8035312728706         3.8813609548171084
537.1256859933247         3.8479664214951472
537.1859765080012         3.847751738451238
537.2208900636526         3.8475084114318916
541.5223156072849         3.8310904939098016
543.1790518155738         3.8193560024179023
545.4146643861085         3.807308387589745
547.3837564768722         3.7990356354409553
550.2668435283267         3.780679651147419
550.8506921221122         3.778321559622768
553.0577714266765         3.7698437684256514
556.7840437759146         3.7470755137639373
557.2311955427705         3.7453141706043405
557.3551058871528         3.7448006142327124
557.699435581723          3.7425601822148504
562.7856487893126         3.7308137938820827
565.1106974732177         3.719833434453976
568.7968570449011         3.7091505102205677
572.2572727411316         3.69153161434656
573.9355405151639         3.687808911338427
578.3820239703684         3.6675380161108238
578.5473026443767         3.6672300080223876
579.0420240014595         3.6652894680473422
583.1836776524624         3.6622530385654377
584.8604398951622         3.6563222218165965
587.7124448892355         3.6558467128177647
591.8195996325644         3.6429417719124144
591.9755455677042         3.643008341449131
592.1704926678215         3.6424781355776514
596.0368925259077         3.647369980286782
599.6231721875484         3.6389831875170566
600                       3.639640314139127
