% Model:              CMSL_AJB_O2_20210227_AdptLKR.mph
% Version:            COMSOL 5.5.0.359
% Date:               Feb 28 2021, 00:54
% Dimension:          1
% Nodes:              282
% Expressions:        1
% Description:        Line graph
% cln1x                   Height
0                         43.142855229115476
0.38753430215217577       43.14128992502851
3.988685588050714         43.14666873271294
7.652522058023521         43.12232249162427
8.063649874010366         43.121757722734856
8.412992674900806         43.118500619908055
12.285197674031451        43.1036910566503
15.664604913608684        43.06447531532591
16.74409301282776         43.057893057119465
18.927329877927036        43.0281635227478
21.505486985557866        43.003966601899286
22.60680165541646         42.98617573894318
26.710817679384263        42.93830247714026
29.031451327805314        42.89992232810193
32.068238732177235        42.84971579224921
33.67469263873056         42.81987864324164
35.93121051203923         42.786063180071125
39.407700279356675        42.71521370781508
40.46546327779589         42.69795298698155
45.03786148765727         42.60361331577918
45.54923479751429         42.593992522820635
45.65650154033034         42.59160609171939
50.844719662281165        42.48989060103577
51.987981181045654        42.46378113545644
56.24100689392651         42.380575400378255
58.334513143730135        42.329662100003674
60.88850835589392         42.27865475042168
64.4997022476158          42.19290906821492
65.99682049340106         42.162436445045195
70.65654110223295         42.05035163900354
70.93566356873134         42.04472356110621
71.97036244443944         42.01968981089257
75.84585119160931         41.936432250513306
76.89511848761947         41.90966575593327
80.71368041061214         41.82696695750316
83.05500728404672         41.76769227360756
85.62335799178697         41.71193762496503
89.09926087632687         41.62535858312383
90.62361848715307         41.59209672979764
94.94178416258251         41.48515548858138
95.81519122358026         41.466100951058806
98.60965944184227         41.39424106910063
100.64539325690248        41.349008130411896
101.37572678185501        41.32930871562253
105.39046764285581        41.2409731025293
107.80195184153098        41.17811102227652
109.64110688670905        41.13740240855074
112.36972668496844        41.06509359841716
113.85592116316673        41.03200061951032
115.21803882676159        40.99453907754729
117.72072558845997        40.94225685153718
121.29362775156255        40.84551419411974
122.19341664331245        40.82542500363798
122.6361286159829         40.814213590077365
127.06435693588736        40.70570784981182
127.28921980316011        40.69977342299074
130.71730330307457        40.61850771154103
131.30354984007147        40.602729049037805
133.77558841177506        40.545375305909815
135.1183606777539         40.51294761958828
138.5375914708947         40.426019480862706
139.79769588989927        40.39747451778683
143.12397878475872        40.31143565601398
143.32980486220526        40.30672628391151
143.46861142798338        40.30298662527626
146.72871556032533        40.22930218260017
148.687779063856          40.17668019178961
150.1753718274639         40.142500943752616
153.16261531680027        40.068110332004665
154.45963091397942        40.03426717505457
157.52850611412384        39.96304075131196
159.6652245722447         39.90729485532478
161.92743376355793        39.85440174164152
164.97886812235384        39.77626295396745
166.6885918809926         39.73657792804049
169.56054436111407        39.658609429862764
171.0263795299286         39.62513234120214
172.39798615571522        39.58769498048374
175.500821918503          39.518948822837075
179.66901584017626        39.40625666140619
179.97770456043264        39.39908793698695
180.21713962956449        39.392564611918814
184.48604013588624        39.29736438052767
187.25589850385307        39.224247403540296
188.72963407419957        39.18647679628208
191.22572716558165        39.125653583207914
193.00604959622638        39.0833892543847
196.5284213859436         38.98820033021605
197.5701218069509         38.965010392618844
198.58936087589893        38.937757299757266
202.13285334023465        38.85811153486978
204.2527896976698         38.79907435860049
206.51629858291244        38.75014810853071
210.9875446146384         38.629753709187945
211.104836308524          38.62703044929516
211.50660091302484        38.616532802009125
215.64768645532075        38.519918584617436
216.83913598088674        38.48786948587443
220.10214467522286        38.41290513695736
222.7209281164608         38.34252785533437
224.58311340018747        38.299815179090004
227.6155382917849         38.223273276666276
229.04040066808778        38.18625782967578
231.12430961652774        38.13850520602686
234.39588040815642        38.05017989426749
235.09524468797605        38.0347133128174
235.82436993208364        38.015153161408044
239.14323639947276        37.94082803343324
241.5358033190173         37.876049934185005
243.28164410950836        37.83776421098631
246.16084314223826        37.75964437890033
247.35983953694034        37.73281086429197
248.07946628120044        37.712875871593944
251.14427782989196        37.64399124986572
254.48371594681095        37.55502113133451
255.08277411402906        37.54140326576395
255.63778623596846        37.52593425114157
258.7605594781021         37.45847111707107
262.2274771120402         37.36276131592065
262.42976525190886        37.358344562704104
262.7233771556398         37.35066449239638
266.14025869314156        37.27459830338185
269.70873743167516        37.17922631619079
269.7389892837878         37.17854569431224
269.764499032537          37.17786842524899
273.2111019423972         37.10248715654005
275.53945332469704        37.03982363530205
277.1303344768634         37.00451486885291
280.99030716303844        36.90373944923454
281.0620194192959         36.90215410308426
281.62381995794794        36.887903840568754
285.5815567672403         36.79291737633634
285.98972655570344        36.78348973231949
286.703309105471          36.76402784908558
290.2522321115823         36.68660199176222
292.8634895820874         36.61550719054742
293.9150329715904         36.59223702158206
295.0335665027984         36.561995592949344
297.7883966461195         36.501574737774014
300.29495212835405        36.436124295038816
301.7142239520984         36.40480357386034
303.53969548832845        36.35523159029235
306.0460337304693         36.30217420898322
308.0613476178084         36.249604424565185
310.4494930812944         36.195163398551614
313.9573730726481         36.10179162679878
314.975560528459          36.079901866625384
315.64480432068535        36.06267609421029
320.0213873929714         35.96422221037405
322.25284664983974        35.90593794032481
324.5672266242851         35.854974346379166
328.69820322042176        35.74589053411492
329.15076004424           35.73631402675891
329.4330640592718         35.72899728307895
333.5411215448105         35.64034827562573
336.9783063176418         35.54917517977265
337.8603541346354         35.53005846076546
338.7840416412673         35.50507812171042
342.0367848807191         35.43651282828483
345.42137614191086        35.347096165490676
346.12785636207843        35.33165813140834
346.63179832242236        35.31816115480788
350.2394530680266         35.24056990354187
352.5492589952331         35.180463570008655
354.4191509765843         35.13747439109565
357.0153864550945         35.07815850868056
360.46183077779085        34.9896881441861
360.9123604705568         34.97985918121902
361.2814249612884         34.97016395297268
365.04507844051193        34.889413634983285
367.34248668589555        34.830188116017176
369.2619158683052         34.78672993928787
371.9365533911191         34.72521371520695
375.1821824760349         34.64244265845554
375.8061165470074         34.62906369792557
376.2902735735187         34.61643345191944
380.1219136268503         34.5358571250312
382.892469814029          34.46411811411605
384.42148709338653        34.43266560056727
388.13203353499364        34.33933939831161
388.74006422154343        34.3263220746898
388.96305628215566        34.32065752426774
393.03813011266527        34.232490699982115
394.4300254177633         34.19728311572595
397.1947881116906         34.13854429013948
399.7416683416195         34.07537539194459
401.35031378657436        34.041388134060035
404.8426186277858         33.95630305793991
405.64426925314945        33.93978199181875
409.2269862112844         33.85166496160602
410.02416706278154        33.834638874642835
410.2223291824097         33.82946065479973
414.20424737855944        33.74769688537403
416.10065659114696        33.69959043368946
418.5140410710767         33.65128742277452
421.25696840426656        33.582293825268046
422.4239792068265         33.55783731449646
423.5013311384937         33.530769733796085
426.1066421834548         33.47855067508522
429.8606518801839         33.38523180695756
429.9527076245033         33.383437760534456
430.149458826656          33.37866914171381
433.9129863802053         33.30223013245103
435.493257669144          33.26341548111099
437.8846486559902         33.21551561486982
441.1721918367018         33.1359035683816
442.01248627240136        33.11928859363307
446.0721547275466         33.02426990303577
446.95597852571757        33.00539674346386
447.1001540661805         33.00225202751753
447.3420591055112         32.996364566619505
451.84303167858127        32.908637798859125
455.2663816525519         32.82700503058639
456.3737632662743         32.80603337361388
457.6868179028129         32.77496814225256
460.2748042633983         32.724266279158165
462.0240843789686         32.683732750124825
464.08701797186154        32.64401520220769
467.7566399240561         32.55944756039921
468.0754947245306         32.55337674757152
471.81204309653833        32.471134260692466
472.74843381662197        32.45136046003255
472.8141457185485         32.45004580072246
472.9116925774414         32.44775975440658
476.9107634357173         32.37308318939258
480.48053082117406        32.29285607188558
480.93830650774726        32.28439795960344
481.35272869456526        32.274599097766576
485.06289939951137        32.20752174806658
487.49811795765345        32.152532010488606
488.88462728458694        32.127259226486174
490.1455893952477         32.100081758086574
491.8746820868562         32.06641974563071
493.846715529201          32.02618360649341
495.22163356382634        32.00107906617124
497.14674580566304        31.95932925525614
500.30180804273834        31.906071483417985
503.23791508259035        31.843687082624637
505.5490053931029         31.803584916977186
508.64774288218246        31.737419720940327
510.2202771886821         31.712103843146068
511.4593942223047         31.686651192002543
514.7611640502902         31.6337029804242
517.823084780086          31.571483946501065
519.260246062986          31.549098543480916
520.9192987406748         31.516946372791935
523.7474014882779         31.472745013102553
526.3284926794639         31.421944462308147
528.1908904731289         31.39442758939229
529.8491632556222         31.364207751340505
532.8035312728706         31.321327964262043
537.1256859933247         31.24350205965975
537.1859765080012         31.242686304390094
537.2208900636526         31.242104894710796
541.5223156072849         31.184037005621096
543.1790518155738         31.156793218371586
545.4146643861085         31.123721522497775
547.3837564768722         31.097996154907705
550.2668435283267         31.054112874395397
550.8506921221122         31.046892266803013
553.0577714266765         31.019949246697486
556.7840437759146         30.967293712929195
557.2311955427705         30.96195364638632
557.3551058871528         30.960447658490423
557.699435581723          30.955643318218364
562.7856487893126         30.90722987049477
565.1106974732177         30.88138001421907
568.7968570449011         30.84678694397039
572.2572727411316         30.809962818059695
573.9355405151639         30.796849193321055
578.3820239703684         30.75558741878381
578.5473026443767         30.754490647754434
579.0420240014595         30.75063221833217
583.1836776524624         30.731815201291123
584.8604398951622         30.720828290270475
587.7124448892355         30.711953383599237
591.8195996325644         30.690314058499883
591.9755455677042         30.690057012355144
592.1704926678215         30.68928201707146
596.0368925259077         30.689503207507737
599.6231721875484         30.679496297942073
600                       30.68000421875076
