% Model:              CMSL_AJB_O2_20210227_AdptLKR.mph
% Version:            COMSOL 5.5.0.359
% Date:               Feb 28 2021, 00:57
% Dimension:          1
% Nodes:              231
% Expressions:        1
% Description:        Line graph
% cln1x                   Height
0                         12.236441857887645
3.4498422708584258        12.224287784182184
4.843949893982199         12.228022143777972
6.239899662009293         12.22204396549371
9.68815065086153          12.228321765931724
13.132421693181982        12.210391928343087
14.533433280994188        12.211918342958779
15.93485437910897         12.203746114566052
19.38013270234353         12.204307123096656
22.832428094463808        12.180866248040628
24.22764681433273         12.1802586953846
25.619680204505073        12.170137568017651
29.0770222856778          12.165296532869492
32.55672000993735         12.136660631761755
33.925362340997026        12.134121018310463
35.28279061582407         12.122489941937486
38.770921938271385        12.112637196443078
42.29598252248269         12.079136232063144
43.60767031907301         12.075031948755822
44.90412439924606         12.062447935873532
48.43813071457302         12.048104059044068
52.00490201991926         12.010302108132505
53.26037272405088         12.004990860603817
54.507372387473396        11.991650498541707
58.05657148537841         11.973317736619272
61.616995567573554        11.932276288161514
62.859464845796936        11.925803866806042
64.14545279687638         11.910925805967562
67.67870425540241         11.889427873865563
70.99584444932316         11.848300769396406
72.5596898608934          11.838925115973444
74.26115750178633         11.817757204212798
77.50041652275081         11.79589944249249
80.48305247918063         11.755735582492276
82.44551496090384         11.742843091296079
84.32205853884892         11.718849157826993
87.48748871522116         11.695086667526171
91.10338881756616         11.647079076449886
92.44003024101886         11.637254146890546
93.65784372948696         11.62086700845043
97.42203877443501         11.590438948932574
101.73180549440701        11.533265879863437
102.05693139030456        11.52970375793656
102.78992523632655        11.520321076701808
106.75497864267948        11.483248332869568
108.80233216922335        11.456895489345406
110.86156712695163        11.437249574142928
112.99498064095468        11.408708795185754
114.94059924725752        11.391125745125
117.37186172052986        11.35801928718539
119.03565899144371        11.342689552371594
120.36806635006349        11.323947363919986
123.47627136427008        11.295595760305776
127.99030721392182        11.232791993184236
128.10212346307685        11.231798684854725
128.27647040467053        11.229381429840892
132.72578790966998        11.186708365909906
135.44701241902544        11.148460090480855
137.47738583879834        11.129438402412745
140.97369980176256        11.080297181107666
142.53917904593965        11.065038186004758
143.34155495718232        11.05355235808903
147.6636447569109         11.00486014816742
148.83405635055573        10.988159050118751
151.6712898733797         10.961054400839911
155.60119446888086        10.906028516069343
156.60429372265435        10.895648168517063
161.67457684565403        10.833596580849528
162.408970304254          10.825160434120153
167.47861832320666        10.763168077522337
168.24402426068718        10.754315620192441
173.37640248043306        10.692427014112173
174.24103459980302        10.682337830714305
179.16602945917555        10.624233909877729
180.5758987911076         10.60835314167728
185.4158312724864         10.544205130553678
185.62957136708127        10.541821085869334
191.47354288718157        10.470164072064561
191.78112244896545        10.466695995944228
197.74047841725644        10.393651602661098
197.89587121341208        10.391829831546007
203.2028358746586         10.331765122803565
204.40866103405563        10.317718406177487
209.52955403554643        10.252838704126052
210.2741402707344         10.244336760844934
215.72102026914132        10.176497383139036
216.41605404886633        10.168591353752038
221.98552933538457        10.099831930568364
222.42657062375935        10.094831769390844
227.80440590060095        10.030213987319335
228.38310735953252        10.023614648101592
233.6484327730074         9.959559259509813
234.17645072934613        9.953464483627757
239.4922268100641         9.89160677901109
240.70933635940122        9.878035298039073
246.3858577417676         9.804632472362632
246.55236615570948        9.802832399731379
247.96165466166758        9.785336791407993
252.69565221979417        9.732210704896318
253.15055509243564        9.725878015885273
258.1784211432872         9.663879879814978
258.2367880947371         9.663236746306813
258.45303448177435        9.660187163439465
263.62117981348655        9.603715280119538
265.0336651499739         9.587462598985905
269.91033613158754        9.526926870252009
270.6505993741782         9.518819339353279
275.934019528936          9.454762631498616
276.5332946507195         9.448079741572531
281.71102646014526        9.387507252593032
282.5351906992895         9.378298514913384
287.614580358937          9.318582705974494
288.46390097268977        9.309002519943814
293.34488815284203        9.253629054323959
294.7753505031605         9.237833599636717
299.2908639344895         9.183062297824252
300.328071626423          9.171919686307046
305.6031267114346         9.109088397045204
306.3720818863375         9.100855436619794
311.8279785696034         9.03576583096667
312.4956023133808         9.028578957027694
318.04501652423664        8.96348032125864
318.5074368009863         8.958572259600533
324.1557098218575         8.893025826398103
324.4094025769051         8.890347034049045
329.9438580381759         8.827320905835606
330.11071299996763        8.825533054584598
335.7203555257224         8.760813606072713
335.94921029503814        8.758344645747982
341.60021467435695        8.697447198481116
342.37912715394157        8.689191975759266
347.8291905240245         8.626843750017146
348.40909266082633        8.62084157798049
353.97696430252915        8.55748883637709
354.35598369299714        8.553594527119325
359.99317056009863        8.49021823324552
360.18155050273583        8.488272263196095
365.6684873763096         8.428275470092082
366.0485662459039         8.424340496437095
371.5934141781645         8.362814144407645
371.97344583054223        8.358935420984418
377.54469799999003        8.298615730943126
377.88504851278765        8.295142331169478
383.55952304848336        8.234634267338237
384.22088325912694        8.227714281614407
389.2397692897906         8.176549153244741
390.55501771356285        8.163377232272788
395.4193968804643         8.107509524226948
395.8619876586498         8.103204469961366
401.17790807782353        8.046778072785573
401.77062394138693        8.040874317520574
406.89429664087197        7.987751606530539
407.75725589969227        7.979184883625185
412.8532828039373         7.925308177235046
413.7330648651881         7.916651160337374
418.90339072582117        7.865354792426357
420.20344319657215        7.853067292223878
425.20743972638013        7.798363840531469
425.74225501547653        7.793296707487693
431.2408952804674         7.740118418239258
432.53422939491145        7.728224966910214
437.7458953143497         7.671229239609931
437.94236024330337        7.669484426557461
443.85599708706275        7.60985360177734
443.95192616886493        7.608995987749742
446.935936694695          7.579826738256567
449.6111151219203         7.554608788674117
449.69430685626924        7.553774575540337
454.882254914953          7.506065905900948
455.076792685075          7.503877759874307
458.5533689752831         7.469396875506597
460.33276317764467        7.452938540685054
460.42245211239083        7.452211223995864
460.6080907787567         7.450114183859734
465.33258712383406        7.417160178343306
469.227039967461          7.371245525588894
469.8629835248622         7.3672322314541185
470.4295890651649         7.360979541187497
474.5186027487355         7.333052648431142
479.1838015934268         7.281073360687279
479.21280286440526        7.280893654403945
479.23958138540434        7.280608368170628
483.93876353385133        7.250619579706945
488.5926413921701         7.200022832730927
488.7125370939789         7.199237018438321
488.83401947695666        7.197890958977888
493.4542647738891         7.170662622067902
497.93375458367075        7.1238196900489354
498.1781347624244         7.1223347503689
498.42069750606913        7.119792235982712
502.8846929459097         7.094819122408136
507.0208062702902         7.054541297198651
507.79913604917317        7.050722737879929
508.9848826605561         7.038872131801175
512.5566391808296         7.020599596360019
515.275657853276          6.992297842260556
517.502144010293          6.983827883623523
519.6011613107045         6.963531926987857
522.431980064132          6.951568902204036
525.6776530377033         6.9202732993254195
527.3159460541787         6.914419712795003
528.8666932162016         6.900551368972815
532.187573870725          6.888382179570232
535.6169311262483         6.857591684109821
537.032297283015          6.853359347189875
538.4535385511565         6.841582468671397
541.8799493789287         6.831380242752652
545.2977229201813         6.8033375641271325
546.736000879548          6.800003677716071
548.1571181338207         6.789288854017408
551.5775211332971         6.781714824901311
555.0314692206346         6.7561325605360665
556.4124088189615         6.753969231091403
557.7892810420985         6.744677345025066
561.247858234459          6.739826800478688
564.6991290132607         6.7172169218550595
566.0896519833852         6.716162410021551
567.4847190178467         6.707928412159862
570.935050535717          6.706172726754629
574.3704857390092         6.686842787362359
575.7834907740496         6.687019779672338
577.1992385115004         6.67996574962901
580.6314998162957         6.681572578094533
584.0620859361075         6.66573479335685
585.4772500986826         6.66724889069797
586.8903437117522         6.661578226177634
590.3199999660774         6.666685595663387
593.7586861206241         6.654394574432084
595.1602505295967         6.657255475263562
596.5575843539634         6.653029517281777
600                       6.6617189762319375
