% Model:              CMSL_AJB_O2_20210227_AdptLKR.mph
% Version:            COMSOL 5.5.0.359
% Date:               Feb 28 2021, 01:02
% Dimension:          1
% Nodes:              231
% Expressions:        1
% Description:        Line graph
% cln1x                   Height
0                         14.624713841821032
3.4498422708584258        14.612496184403785
4.843949893982199         14.616177503111247
6.239899662009293         14.610088691195843
9.68815065086153          14.616018508016786
13.132421693181982        14.597617181855702
14.533433280994188        14.598926556188738
15.93485437910897         14.590481660686338
19.38013270234353         14.590289955909356
22.832428094463808        14.565979112708407
24.22764681433273         14.564996334767546
25.619680204505073        14.554449698624206
29.0770222856778          14.548461699877073
32.55672000993735         14.518567745356938
33.925362340997026        14.515510844793738
35.28279061582407         14.503322191505736
38.770921938271385        14.491939427151783
42.29598252248269         14.456803558985811
43.60767031907301         14.452069291149298
44.90412439924606         14.438826038579844
48.43813071457302         14.422581888939787
52.00490201991926         14.382790488474164
53.26037272405088         14.376757521454275
54.507372387473396        14.3626712518393
58.05657148537841         14.342110137076315
61.616995567573554        14.298778738476722
62.859464845796936        14.291484883942458
64.14545279687638         14.275732244883834
67.67870425540241         14.251725796809144
70.99584444932316         14.20820615372826
72.5596898608934          14.19767221597654
74.26115750178633         14.1752192788343
77.50041652275081         14.150811373595362
80.48305247918063         14.108284571480047
82.44551496090384         14.093793027684423
84.32205853884892         14.06825151976496
87.48748871522116         14.041776238558704
91.10338881756616         13.990659942966825
92.44003024101886         13.979659674140539
93.65784372948696         13.96219426288738
97.42203877443501         13.928308091402458
101.73180549440701        13.867183188121825
102.05693139030456        13.863313361863106
102.78992523632655        13.85323473532098
106.75497864267948        13.81234591698914
108.80233216922335        13.784012164599
110.86156712695163        13.76232755902239
112.99498064095468        13.731674375636091
114.94059924725752        13.712133759391312
117.37186172052986        13.67657816267442
119.03565899144371        13.6595339752519
120.36806635006349        13.639424937840086
123.47627136427008        13.607818929361322
127.99030721392182        13.540292042948167
128.10212346307685        13.539179695818078
128.27647040467053        13.536576539553042
132.72578790966998        13.489072486970382
135.44701241902544        13.447876416595866
137.47738583879834        13.426617554451797
140.97369980176256        13.373628007374188
142.53917904593965        13.35661071717676
143.34155495718232        13.344229119019975
147.6636447569109         13.290643240036943
148.83405635055573        13.272616141251406
151.6712898733797         13.242240052937985
155.60119446888086        13.18270270146671
156.60429372265435        13.171156537644007
161.67457684565403        13.103165290496758
162.408970304254          13.093864855528366
167.47861832320666        13.025855944309656
168.24402426068718        13.016090486655045
173.37640248043306        12.948028913101913
174.24103459980302        12.936895792853784
179.16602945917555        12.872795549418871
180.5758987911076         12.85519154845489
185.4158312724864         12.785115034647928
185.62957136708127        12.782467088955826
191.47354288718157        12.703566856508768
191.78112244896545        12.699715647119204
197.74047841725644        12.619216609854199
197.89587121341208        12.617199794471404
203.2028358746586         12.550424952631007
204.40866103405563        12.534852639127315
209.52955403554643        12.463473966873869
210.2741402707344         12.454022903497998
215.72102026914132        12.379221812491316
216.41605404886633        12.370424054759324
221.98552933538457        12.294498620276544
222.42657062375935        12.288929284768669
227.80440590060095        12.217350071797723
228.38310735953252        12.210000185408338
233.6484327730074         12.13909929550466
234.17645072934613        12.13231676177308
239.4922268100641         12.063510432288622
240.70933635940122        12.048345838192875
246.3858577417676         11.967512624685007
246.55236615570948        11.965493677466908
247.96165466166758        11.946144662972921
252.69565221979417        11.886774252386036
253.15055509243564        11.879844419550567
258.1784211432872         11.811216105003385
258.2367880947371         11.810495516354946
258.45303448177435        11.807161411681468
263.62117981348655        11.74383737247602
265.0336651499739         11.725714050489817
269.91033613158754        11.658712268022198
270.6505993741782         11.649621567632442
275.934019528936          11.578545688545905
276.5332946507195         11.571065803730828
281.71102646014526        11.50359855653626
282.5351906992895         11.493292228980115
287.614580358937          11.426804149569685
288.46390097268977        11.416091785238653
293.34488815284203        11.354200165332294
294.7753505031605         11.336495878017109
299.2908639344895         11.275698827783422
300.328071626423          11.2631714158665
305.6031267114346         11.193299154793037
306.3720818863375         11.184039626342903
311.8279785696034         11.111669307660708
312.4956023133808         11.10359142164052
318.04501652423664        11.03108612601843
318.5074368009863         11.025561186334098
324.1557098218575         10.952479800126321
324.4094025769051         10.949462884022978
329.9438580381759         10.879059624537366
330.11071299996763        10.87704972235497
335.7203555257224         10.804868995935578
335.94921029503814        10.802095980129955
341.60021467435695        10.73368574963649
342.37912715394157        10.724397517097023
347.8291905240245         10.654824504604036
348.40909266082633        10.648055101909442
353.97696430252915        10.577340952678881
354.35598369299714        10.572946636194416
359.99317056009863        10.502138670386765
360.18155050273583        10.499945005660345
365.6684873763096         10.432738606289448
366.0485662459039         10.428305741703797
371.5934141781645         10.359522309618274
371.97344583054223        10.355147836300231
377.54469799999003        10.287565803392633
377.88504851278765        10.283650537366793
383.55952304848336        10.215783740340477
384.22088325912694        10.208009499764142
389.2397692897906         10.150368464553818
390.55501771356285        10.135507732151272
395.4193968804643         10.07340576203499
395.8619876586498         10.068536246806346
401.17790807782353        10.005340922256238
401.77062394138693        9.998686589754696
406.89429664087197        9.939087291811823
407.75725589969227        9.92943657361651
412.8532828039373         9.869171897295342
413.7330648651881         9.859419515217756
418.90339072582117        9.801698395974642
420.20344319657215        9.787808513604794
425.20743972638013        9.726956543140911
425.74225501547653        9.721237597118174
431.2408952804674         9.661378477600453
432.53422939491145        9.647928025398166
437.7458953143497         9.584683899041181
437.94236024330337        9.582705843690068
443.85599708706275        9.516084358098771
443.95192616886493        9.515114476669426
446.935936694695          9.482469718918242
449.6111151219203         9.454135707753025
449.69430685626924        9.453205210030598
454.882254914953          9.399546807625935
455.076792685075          9.397137341992327
458.5533689752831         9.358736368203113
460.33276317764467        9.340271643093137
460.42245211239083        9.339444379818303
460.6080907787567         9.337141423704805
465.33258712383406        9.298952417515752
469.227039967461          9.248791977827215
469.8629835248622         9.244089501738857
470.4295890651649         9.237229395634284
474.5186027487355         9.204927350837785
479.1838015934268         9.148045646417607
479.21280286440526        9.147835681212225
479.23958138540434        9.147522822904637
483.93876353385133        9.112708617505918
488.5926413921701         9.057431698152158
488.7125370939789         9.056524902294393
488.83401947695666        9.055059744433864
493.4542647738891         9.023312667900093
497.93375458367075        8.97219291063818
498.1781347624244         8.97047383435455
498.42069750606913        8.967706354767447
502.8846929459097         8.938607177968736
507.0208062702902         8.894615576327734
507.79913604917317        8.890106050590582
508.9848826605561         8.877229388892946
512.5566391808296         8.855867657851684
515.275657853276          8.825299166899928
517.502144010293          8.814995479193746
519.6011613107045         8.793025933184929
522.431980064132          8.778805242470458
525.6776530377033         8.745043290868542
527.3159460541787         8.737959180136436
528.8666932162016         8.722971409868117
532.187573870725          8.708407691635372
535.6169311262483         8.675281666472449
537.032297283015          8.67009780799634
538.4535385511565         8.657410783353933
541.8799493789287         8.645018081173701
545.2977229201813         8.614938815254323
546.736000879548          8.610759780284605
548.1571181338207         8.599260671237793
551.5775211332971         8.589802099773937
555.0314692206346         8.562479584225072
556.4124088189615         8.559631096536606
557.7892810420985         8.549709829851258
561.247858234459          8.543281775333764
564.6991290132607         8.519272042620585
566.0896519833852         8.517663155145122
567.4847190178467         8.508931715712674
570.935050535717          8.50594988728209
574.3704857390092         8.485582881865897
575.7834907740496         8.485341763205696
577.1992385115004         8.477931916048556
580.6314998162957         8.478681550878674
584.0620859361075         8.462178385985638
585.4772500986826         8.463425019383637
586.8903437117522         8.45755283409817
590.3199999660774         8.462178509482502
593.7586861206241         8.449601582199836
595.1602505295967         8.452351446891159
596.5575843539634         8.448080942336782
600                       8.456670923686133
