% Model:              CMSL_AJB_O2_20210227_AdptLKR.mph
% Version:            COMSOL 5.5.0.359
% Date:               Feb 28 2021, 00:38
% Dimension:          1
% Nodes:              282
% Expressions:        1
% Description:        Line graph
% cln1x                   Height
0                         52.718083094465015
0.38753430215217577       52.71644901355823
3.988685588050714         52.7215706908078
7.652522058023521         52.69569790225569
8.063649874010366         52.69499849385397
8.412992674900806         52.69150376958336
12.285197674031451        52.67452129514338
15.664604913608684        52.63225630763498
16.74409301282776         52.62483255753733
18.927329877927036        52.59268249147261
21.505486985557866        52.56577796945581
22.60680165541646         52.5464717887248
26.710817679384263        52.49344674228325
29.031451327805314        52.45149597381895
32.068238732177235        52.39669940670084
33.67469263873056         52.36410884352053
35.93121051203923         52.326670096625044
39.407700279356675        52.24952477979174
40.46546327779589         52.23046701700512
45.03786148765727         52.127434439311926
45.54923479751429         52.116847594519626
45.65650154033034         52.114238126217444
50.844719662281165        52.00225698777483
51.987981181045654        51.97367498843596
56.24100689392651         51.881742155288165
58.334513143730135        51.82619406575576
60.88850835589392         51.76979735624833
64.4997022476158          51.67594360622401
65.99682049340106         51.642237893269396
70.65654110223295         51.51949796983761
70.93566356873134         51.51325703005645
71.97036244443944         51.485826419826324
75.84585119160931         51.39364258833558
76.89511848761947         51.364342969882784
80.71368041061214         51.27273532213289
83.05500728404672         51.20776132829216
85.62335799178697         51.14594824146965
89.09926087632687         51.05085432748323
90.62361848715307         51.013956905153044
94.94178416258251         50.89632734069157
95.81519122358026         50.8751653999838
98.60965944184227         50.796320044753486
100.64539325690248        50.746023660037245
101.37572678185501        50.72444936105763
105.39046764285581        50.62607581976812
107.80195184153098        50.55702179147074
109.64110688670905        50.511689276137844
112.36972668496844        50.43237382563589
113.85592116316673        50.395465839794674
115.21803882676159        50.35444173043318
117.72072558845997        50.2957619651893
121.29362775156255        50.18969286912916
122.19341664331245        50.16726397733065
122.6361286159829         50.15487664862384
127.06435693588736        50.034759046273294
127.28921980316011        50.0282232910451
130.71730330307457        49.93792578513451
131.30354984007147        49.92057719299272
133.77558841177506        49.85667520395574
135.1183606777539         49.8206958116784
138.5375914708947         49.7245864243332
139.79769588989927        49.6927011988231
143.12397878475872        49.59768939574978
143.32980486220526        49.59242690891141
143.46861142798338        49.58830961829343
146.72871556032533        49.505851104624455
148.687779063856          49.44790726806381
150.1753718274639         49.409684120053164
153.16261531680027        49.32716609306854
154.45963091397942        49.28974879890852
157.52850611412384        49.210163572818416
159.6652245722447         49.148508802764916
161.92743376355793        49.089429259643985
164.97886812235384        49.00282765776881
166.6885918809926         48.95844939048472
169.56054436111407        48.872480027928574
171.0263795299286         48.83493452366545
172.39798615571522        48.793646496731235
175.500821918503          48.716298142666425
179.66901584017626        48.59189974474249
179.97770456043264        48.583866852142414
180.21713962956449        48.576665251462465
184.48604013588624        48.46950912283047
187.25589850385307        48.388576823377484
188.72963407419957        48.34662659278375
191.22572716558165        48.27876400546595
193.00604959622638        48.23145416467877
196.5284213859436         48.126230354127
197.5701218069509         48.100102223686605
198.58936087589893        48.06994273464615
202.13285334023465        47.98023582398199
204.2527896976698         47.915105009391475
206.51629858291244        47.85976020999131
210.9875446146384         47.726514834733166
211.104836308524          47.72345774532344
211.50660091302484        47.711804558421434
215.64768645532075        47.60332633501231
216.83913598088674        47.567828900695
220.10214467522286        47.483508553174836
222.7209281164608         47.40554204059642
224.58311340018747        47.35748318314409
227.6155382917849         47.27216388804141
229.04040066808778        47.23102677743883
231.12430961652774        47.17725525336935
234.39588040815642        47.07941339771341
235.09524468797605        47.06193122842327
235.82436993208364        47.04025074552383
239.14323639947276        46.95632444725821
241.5358033190173         46.88456088439126
243.28164410950836        46.84122976465294
246.16084314223826        46.75469996005635
247.35983953694034        46.7243856486471
248.07946628120044        46.70234080058318
251.14427782989196        46.6245583566328
254.48371594681095        46.52582064867179
255.08277411402906        46.51045767195811
255.63778623596846        46.493357944588105
258.7605594781021         46.4168232644438
262.2274771120402         46.31093549165773
262.42976525190886        46.305931278491784
262.7233771556398         46.29739103737251
266.14025869314156        46.21136785781757
269.70873743167516        46.10552119307494
269.7389892837878         46.10475241986658
269.764499032537          46.1040003406034
273.2111019423972         46.01857225647251
275.53945332469704        45.94905988134531
277.1303344768634         45.909114478338616
280.99030716303844        45.796999850801186
281.0620194192959         45.79520564079823
281.62381995794794        45.779307065183175
285.5815567672403         45.67273237659688
285.98972655570344        45.6621083656485
286.703309105471          45.64054419716168
290.2522321115823         45.552759351776615
292.8634895820874         45.47398012183076
293.9150329715904         45.44763411850877
295.0335665027984         45.41409757594525
297.7883966461195         45.34563459778835
300.29495212835405        45.27282219973901
301.7142239520984         45.23735138016066
303.53969548832845        45.18240240767945
306.0460337304693         45.12203979347751
308.0613476178084         45.06355693014045
310.4494930812944         45.002129556883474
313.9573730726481         44.8984480519853
314.975560528459          44.873592922480285
315.64480432068535        44.85440820519896
320.0213873929714         44.743178093936216
322.25284664983974        44.67835916215079
324.5672266242851         44.620644430554954
328.69820322042176        44.499455490370586
329.15076004424           44.48856475978376
329.4330640592718         44.480423638437465
333.5411215448105         44.37983532549307
336.9783063176418         44.278613005921855
337.8603541346354         44.256931572588776
338.7840416412673         44.22924749499809
342.0367848807191         44.15126519575039
345.42137614191086        44.05197731413954
346.12785636207843        44.03449035648083
346.63179832242236        44.01952161787243
350.2394530680266         43.93150905322451
352.5492589952331         43.86467938220714
354.4191509765843         43.81629405112133
357.0153864550945         43.74947147435559
360.46183077779085        43.65102450866739
360.9123604705568         43.639896724324316
361.2814249612884         43.62913096183301
365.04507844051193        43.5375778910085
367.34248668589555        43.471712336302076
369.2619158683052         43.4227587020239
371.9365533911191         43.35356420989249
375.1821824760349         43.2614761586801
375.8061165470074         43.246313760943366
376.2902735735187         43.23229093300346
380.1219136268503         43.140815765524486
382.892469814029          43.061145157611236
384.42148709338653        43.0253690194894
388.13203353499364        42.92148105833474
388.74006422154343        42.90674079732604
388.96305628215566        42.90044053086236
393.03813011266527        42.800779290988196
394.4300254177633         42.761621788626705
397.1947881116906         42.69512843876575
399.7416683416195         42.62477109884418
401.35031378657436        42.58629739303879
404.8426186277858         42.49141152448011
405.64426925314945        42.472669142310195
409.2269862112844         42.374549665186805
410.02416706278154        42.35530701346081
410.2223291824097         42.34957335086279
414.20424737855944        42.25682056281834
416.10065659114696        42.2034427488102
418.5140410710767         42.148528111351524
421.25696840426656        42.07198668824
422.4239792068265         42.044326189905334
423.5013311384937         42.01429610173511
426.1066421834548         41.955004483586634
429.8606518801839         41.85144602230771
429.9527076245033         41.84940463477665
430.149458826656          41.8441043712711
433.9129863802053         41.75753453406174
435.493257669144          41.71444080060112
437.8846486559902         41.6601670177488
441.1721918367018         41.5717374947723
442.01248627240136        41.552906814198295
446.0721547275466         41.44712083718487
446.95597852571757        41.42590886149136
447.1001540661805         41.42238057580681
447.3420591055112         41.41585385359073
451.84303167858127        41.316382806095966
455.2663816525519         41.225801756867114
456.3737632662743         41.2019864564002
457.6868179028129         41.16754255630663
460.2748042633983         41.110186840205614
462.0240843789686         41.06515194166378
464.08701797186154        41.02021757160093
467.7566399240561         40.926325151429076
468.0754947245306         40.919460842735575
471.81204309653833        40.82786480180752
472.74843381662197        40.805749169458736
472.8141457185485         40.804269122691814
472.9116925774414         40.801739506236835
476.9107634357173         40.7172180216675
480.48053082117406        40.628257960641996
480.93830650774726        40.61867581810804
481.35272869456526        40.60786255236768
485.06289939951137        40.53189544507982
487.49811795765345        40.471060407584055
488.88462728458694        40.442528186750756
490.1455893952477         40.412391250918624
491.8746820868562         40.374650130307394
493.846715529201          40.329851947921505
495.22163356382634        40.30154513585163
497.14674580566304        40.25535425930455
500.30180804273834        40.194968681976114
503.23791508259035        40.12604819991592
505.5490053931029         40.08074916743434
508.64774288218246        40.00780021969182
510.2202771886821         39.97909705854781
511.4593942223047         39.951032509596274
514.7611640502902         39.89106050591794
517.823084780086          39.82245384147557
519.260246062986          39.79713446081104
520.9192987406748         39.761668707903304
523.7474014882779         39.71175647863336
526.3284926794639         39.65588132766084
528.1908904731289         39.62477871071459
529.8491632556222         39.59147481757792
532.8035312728706         39.543000071900494
537.1256859933247         39.45735729583277
537.1859765080012         39.45643412722574
537.2208900636526         39.45579361717538
541.5223156072849         39.39027883692775
543.1790518155738         39.36031861627055
545.4146643861085         39.32350676960988
547.3837564768722         39.294685998640475
550.2668435283267         39.24630166769245
550.8506921221122         39.23822024472324
553.0577714266765         39.20798403115278
556.7840437759146         39.150084867025356
557.2311955427705         39.14410822983876
557.3551058871528         39.14242469618663
557.699435581723          39.13717003402311
562.7856487893126         39.082172782547175
565.1106974732177         39.053730300062895
568.7968570449011         39.0148527987097
572.2572727411316         38.9746980676204
573.9355405151639         38.95989578264652
578.3820239703684         38.91498701408716
578.5473026443767         38.91374804349388
579.0420240014595         38.90955523583711
583.1836776524624         38.88788229480682
584.8604398951622         38.876032707165656
587.7124448892355         38.86562539866334
591.8195996325644         38.84250641713164
591.9755455677042         38.842189608687235
592.1704926678215         38.84137402502948
596.0368925259077         38.84069733379734
599.6231721875484         38.83047119617656
600                       38.8309466734923
