% Model:              CMSL_AJB_O2_20210222_AdptLKR.mph
% Version:            COMSOL 5.5.0.359
% Date:               Feb 22 2021, 18:21
% Dimension:          1
% Nodes:              231
% Expressions:        1
% Description:        Line graph
% cln1x                   Height
0                         1.2261522964710356
3.4498422708584258        1.217287647147092
4.843949893982199         1.2203596703091977
6.239899662009293         1.216586551270029
9.68815065086153          1.223481132498001
13.132421693181982        1.2127056063828034
14.533433280994188        1.2151021760169154
15.93485437910897         1.210657412215691
19.38013270234353         1.215654555129144
22.832428094463808        1.2031158653744207
24.22764681433273         1.2048537157828174
25.619680204505073        1.1998655020463735
29.0770222856778          1.203130092108746
32.55672000993735         1.1890039452922583
33.925362340997026        1.190132593493196
35.28279061582407         1.184802222123123
38.770921938271385        1.1865464442123428
42.29598252248269         1.1710092019686797
43.60767031907301         1.171622472574482
44.90412439924606         1.1661804441982806
48.43813071457302         1.1667030211470222
52.00490201991926         1.1500338753433412
53.26037272405088         1.150267421727085
54.507372387473396        1.144764122048857
58.05657148537841         1.1441640583432038
61.616995567573554        1.1268131683714573
62.859464845796936        1.1267362201719946
64.14545279687638         1.1208276632912824
67.67870425540241         1.1194176059283159
70.99584444932316         1.1025491681656916
72.5596898608934          1.1022161795853067
74.26115750178633         1.094004604892846
77.50041652275081         1.0924793378530833
80.48305247918063         1.0760805739748827
82.44551496090384         1.0755890396226826
84.32205853884892         1.0667772460637017
87.48748871522116         1.0646503294233982
91.10338881756616         1.046681957226092
92.44003024101886         1.0460096106657946
93.65784372948696         1.0400811694902963
97.42203877443501         1.0370553199216421
101.73180549440701        1.017015272299436
102.05693139030456        1.016099366634989
102.78992523632655        1.013040299933564
106.75497864267948        1.0068714835720884
108.80233216922335        0.9985487718876718
110.86156712695163        0.995378675457048
112.99498064095468        0.9860280957375224
114.94059924725752        0.9838337084967956
117.37186172052986        0.9730853784840854
119.03565899144371        0.9712558813848531
120.36806635006349        0.9649390858282371
123.47627136427008        0.9618435984456122
127.99030721392182        0.9416457512319389
128.10212346307685        0.9415564303249649
128.27647040467053        0.9408098538393145
132.72578790966998        0.9356902013579371
135.44701241902544        0.9235856997219286
137.47738583879834        0.9216159211428815
140.97369980176256        0.9064869415468735
142.53917904593965        0.9047642194427281
143.34155495718232        0.9011263207436206
147.6636447569109         0.8916462116163771
148.83405635055573        0.886500428153141
151.6712898733797         0.8839374580434357
155.60119446888086        0.8677990033751887
156.60429372265435        0.8663142110861288
161.67457684565403        0.8523822230602037
162.408970304254          0.8507690060135652
167.47861832320666        0.8371072866037503
168.24402426068718        0.8354226787589987
173.37640248043306        0.8225313664505857
174.24103459980302        0.8206096058252275
179.16602945917555        0.8093576472070378
180.5758987911076         0.8066712512086109
185.4158312724864         0.7908772104811009
185.62957136708127        0.7904925186835559
191.47354288718157        0.7756408031376554
191.78112244896545        0.7750701582454167
197.74047841725644        0.760195885082423
197.89587121341208        0.7598667026152928
203.2028358746586         0.7502267445966012
204.40866103405563        0.7477602365390835
209.52955403554643        0.7338081354620328
210.2741402707344         0.7324134179147317
215.72102026914132        0.7184626731190353
216.41605404886633        0.7171939915514051
221.98552933538457        0.7035617372756916
222.42657062375935        0.7027762329447476
227.80440590060095        0.6908874326115433
228.38310735953252        0.6898393166050502
233.6484327730074         0.6777400937607109
234.17645072934613        0.6767423908933361
239.4922268100641         0.6664459235439661
240.70933635940122        0.6644624566381963
246.3858577417676         0.648730722411337
246.55236615570948        0.6484963049022257
247.96165466166758        0.6450946521028869
252.69565221979417        0.6374445523956874
253.15055509243564        0.6358627786060973
258.1784211432872         0.6239774405562875
258.2367880947371         0.623893648664271
258.45303448177435        0.6231202220047847
263.62117981348655        0.6155900857367466
265.0336651499739         0.6130174492885196
269.91033613158754        0.6014288841501371
270.6505993741782         0.6003355140024359
275.934019528936          0.5886935958409965
276.5332946507195         0.5877352232171141
281.71102646014526        0.5777608133048147
282.5351906992895         0.5764344365244616
287.614580358937          0.5665063395729499
288.46390097268977        0.5650876991296855
293.34488815284203        0.5567992871841021
294.7753505031605         0.5546147575703272
299.2908639344895         0.5447694614558385
300.328071626423          0.5433627307203648
305.6031267114346         0.5325310341489983
306.3720818863375         0.5314972823361397
311.8279785696034         0.520176130557762
312.4956023133808         0.5192543765661757
318.04501652423664        0.5085085560680567
318.5074368009863         0.5079095902097207
324.1557098218575         0.49742383211983804
324.4094025769051         0.49710190164313806
329.9438580381759         0.48753750446398436
330.11071299996763        0.4873092780030997
335.7203555257224         0.4769251062320104
335.94921029503814        0.47660131488990154
341.60021467435695        0.46875501052341756
342.37912715394157        0.4677333459398313
347.8291905240245         0.4580386065077285
348.40909266082633        0.45735040532658944
353.97696430252915        0.4475939616239835
354.35598369299714        0.4471552380077185
359.99317056009863        0.43768560847531257
360.18155050273583        0.4374598635912278
365.6684873763096         0.4290969009645804
366.0485662459039         0.4286314877787883
371.5934141781645         0.41960902336683087
371.97344583054223        0.4191685557618299
377.54469799999003        0.41093400299654725
377.88504851278765        0.4105346887850009
383.55952304848336        0.40249398660313485
384.22088325912694        0.40162573816373626
389.2397692897906         0.3957751471368589
390.55501771356285        0.3943282076794114
395.4193968804643         0.385215218552293
395.8619876586498         0.3847816770388303
401.17790807782353        0.37714615011899205
401.77062394138693        0.37648497349404475
406.89429664087197        0.36968757990320456
407.75725589969227        0.3687195112869805
412.8532828039373         0.36125766638485723
413.7330648651881         0.3602936162882251
418.90339072582117        0.3544935209512757
420.20344319657215        0.3532806951651648
425.20743972638013        0.34485078838891636
425.74225501547653        0.3443285528162436
431.2408952804674         0.3384021260612245
432.53422939491145        0.33726987846399126
437.7458953143497         0.32825530737159914
437.94236024330337        0.3281040800253451
443.85599708706275        0.3200978210262453
443.95192616886493        0.32001800206231823
446.935936694695          0.3163612008318693
449.6111151219203         0.3135493603596469
449.69430685626924        0.31343355612220314
454.882254914953          0.3083354782148823
455.076792685075          0.3079241482246362
458.5533689752831         0.30301938004548484
460.33276317764467        0.30108933817067973
460.42245211239083        0.3010344935804508
460.6080907787567         0.3006613802752449
465.33258712383406        0.30070772881109276
469.227039967461          0.2912891564497003
469.8629835248622         0.29137380643856964
470.4295890651649         0.29026718692675474
474.5186027487355         0.2900874433243414
479.1838015934268         0.28006596672851536
479.21280286440526        0.2800679597560536
479.23958138540434        0.28001879782368144
483.93876353385133        0.2802436976754828
488.5926413921701         0.2704754510650804
488.7125370939789         0.27047726825940327
488.83401947695666        0.2701877507268288
493.4542647738891         0.270816414710174
497.93375458367075        0.26184472203926795
498.1781347624244         0.261869698875
498.42069750606913        0.26133521383246283
502.8846929459097         0.2619273000116637
507.0208062702902         0.2544168280179644
507.79913604917317        0.2545993964295992
508.9848826605561         0.2523300399870264
512.5566391808296         0.25312474584941425
515.275657853276          0.24671486972144335
517.502144010293          0.24792213279664224
519.6011613107045         0.2439095104351758
522.431980064132          0.2451248287949901
525.6776530377033         0.23814418438903984
527.3159460541787         0.2388578685131007
528.8666932162016         0.23613658479262312
532.187573870725          0.2376225255289378
535.6169311262483         0.23064792289972366
537.032297283015          0.23129817404705827
538.4535385511565         0.22894354280344972
541.8799493789287         0.2307102514252746
545.2977229201813         0.22422354716468026
546.736000879548          0.22496178863109811
548.1571181338207         0.22275444917907572
551.5775211332971         0.22479334657951364
555.0314692206346         0.2186362900573953
556.4124088189615         0.21942947013241493
557.7892810420985         0.21742419758314038
561.247858234459          0.21974800504574024
564.6991290132607         0.21397849714233758
566.0896519833852         0.21486736322579505
567.4847190178467         0.2129699119891332
570.935050535717          0.21560654416816785
574.3704857390092         0.21027690181147052
575.7834907740496         0.21129561565422023
577.1992385115004         0.2095261425435174
580.6314998162957         0.21255286999208928
584.0620859361075         0.20772031058228405
585.4772500986826         0.20887929486514614
586.8903437117522         0.20727629216007523
590.3199999660774         0.21073710916829047
593.7586861206241         0.20637546091055495
595.1602505295967         0.20766489361670334
596.5575843539634         0.2062347659840625
600                       0.2101399443825349
