% Model:              CMSL_AJB_O2_20210227_AdptLKR.mph
% Version:            COMSOL 5.5.0.359
% Date:               Feb 28 2021, 00:56
% Dimension:          1
% Nodes:              1208
% Expressions:        1
% Description:        Line graph
% cln1x                   Height
0                         0.8754208774600998
0.07644537880878488       0.87542087742204
0.8127602615697924        0.8754208770612628
1.5333611862234306        0.8754208764654112
1.691313091440577         0.8754208763500205
1.8429681349171005        0.8754208755945305
2.5419370262270036        0.8754208707403471
3.2174618005118987        0.8754208707476493
3.274558342129012         0.8754208683949201
3.404895743775228         0.8754208672362384
3.955876995275162         0.8754208583818086
4.140306653069729         0.8754208543751623
4.689754130582742         0.8754208201594451
4.9906938820326445        0.875420836668283
5.457047219396202         0.8754208171311167
5.655585384957362         0.8754207857536366
6.129825952080182         0.8754207799954358
6.526795916652645         0.8754207566951431
7.013540003992716         0.8754206542221065
7.396171616410868         0.8754204097910789
7.98464101751739          0.8754202603879335
8.354363779026244         0.8754201425739339
9.000420925930882         0.8754195762620387
9.443002490288109         0.8754190697691607
9.998298162578806         0.8754183822174711
10.467453214465024        0.8754175510248566
10.997184887368007        0.8754168083740985
11.423543391872272        0.875415950917847
11.99901420936078         0.875414380012804
12.474907543775771        0.8754132873909264
12.9889728045693          0.8754116998323996
13.468372678326318        0.8754101109200872
14.0151494739913          0.8754083245287412
14.464274135202345        0.8754063482441222
15.011120710228454        0.8754040080886746
15.462006218028478        0.8754018922218978
15.996249183457735        0.8753986539706368
16.45760037942813         0.8753959016494053
16.991022358406894        0.8753935963041721
17.387868124577608        0.8753905379636031
17.97390812048758         0.8753858214691195
18.459738787339063        0.8753827404678485
19.015126087754936        0.8753784207724912
19.456953417825503        0.8753742814313001
19.99122301803868         0.8753687952692036
20.457522880578153        0.8753631631658747
20.991816970559114        0.8753574210527424
21.456958540726703        0.8753509131382577
21.992082734458506        0.8753435154983391
22.465177304545932        0.8753376375230374
22.99468565551541         0.8753295120741336
23.45601706578134         0.8753234803454523
23.991781244174263        0.8753162770438784
24.45108715582711         0.8753095555042913
24.987735683116284        0.8753011693712598
25.45481915394157         0.8752931324505844
25.989499946149294        0.8752825565321092
26.454353436130077        0.8752736735468636
26.987305351910095        0.8752630235600627
27.455936879918227        0.8752522714633995
27.98371566160165         0.8752416301922407
28.460673446828764        0.875232102542717
28.986459129118657        0.8752209450566375
29.434175488268124        0.8752096286133915
29.98234061628682         0.8751941358069864
30.45698550812233         0.87518136389675
30.98872887234228         0.8751665906040959
31.466293792747194        0.8751525808586235
31.985726064324012        0.8751364270942475
32.460581488074354        0.8751200131760413
32.98845594957436         0.875101110009092
33.499963982363624        0.8750884391915709
33.98755619883059         0.8750713505193121
34.4508611474314          0.8750518034262667
34.97375599796976         0.8750357790013212
35.433523469263946        0.8750154707758391
36.030909973715666        0.8749927584046174
36.49141286615696         0.8749786834025779
37.01697752822918         0.8749547666258323
37.48871948917213         0.8749342824721427
37.99714710422535         0.8749136389332032
38.46562238389396         0.8748938757702592
38.995657682003184        0.8748723049510272
39.4594829601063          0.8748548561196965
39.97535304896587         0.8748320584574861
40.447898666307765        0.8748111438174628
40.94794976231981         0.8747837679268503
41.45269734102067         0.8747581763564484
41.98986735275395         0.8747345471767975
42.450082874653674        0.8747102212823735
42.9890934352357          0.8746779388491053
43.45798373806025         0.8746490191858121
44.014493317146815        0.8746258939824115
44.41013465787515         0.8745889398704164
45.039189791509386        0.8745511838122209
45.419577315822835        0.8745395161627205
45.9517836630215          0.8745051445778738
46.430818837314405        0.874475914385866
46.98057737818172         0.8744435257314239
47.43891133224773         0.874410983189368
47.98868472333177         0.8743700706109389
48.483664945387005        0.8743445312946991
48.96861828489892         0.8743185280707669
49.44980538344299         0.8742851298752563
49.99164740172577         0.8742502449009251
50.44263051062799         0.8742236014589242
50.993197390963616        0.8741862444689299
51.45691129547126         0.8741578360124598
51.991035510655394        0.8741221050704557
52.45760323359596         0.8740905826260572
52.99103794092318         0.874056724112353
53.46998176026338         0.8740261142095411
53.98965312332709         0.8739912528745611
54.46449569876623         0.8739559398675515
54.98873717373891         0.8739199567914557
55.46071529750509         0.8738820055348189
55.97994557701398         0.8738438002483868
56.5014107003019          0.8738096547630694
56.98917752660276         0.8737719317940092
57.45927018372345         0.8737316085201978
57.96441676910541         0.8736925055410931
58.45811119115052         0.8736507846612229
58.97699945457083         0.8736088007970285
59.461074000348844        0.8735628993042963
59.98269371781589         0.8735173939778224
60.52304041236175         0.8734826363227429
60.99924531228811         0.8734428825295873
61.459346302326026        0.8734008606797548
61.96819794805447         0.8733578561836575
62.47341238404846         0.8733175175884922
62.98622994912057         0.8732721104723825
63.457682705356206        0.8732280629769775
63.99105189502359         0.8731759893407065
64.45768715615668         0.8731371901482945
65.00329127792327         0.8730856396678844
65.45890950807319         0.873044602301362
66.04322665172725         0.8729944326635452
66.46288717513107         0.8729558245306461
66.99105464832667         0.872897664531061
67.45631318986682         0.8728520707616949
67.98378545437663         0.8727976984361023
68.44829493470456         0.8727408721435581
68.99859810087469         0.8726952963170085
69.42946540451305         0.8726610557017129
69.99352637339246         0.8726033906618021
70.42626308437178         0.8725612720993201
70.99151590523553         0.8724947413296755
71.45771301639945         0.8724434700680466
71.97241865834104         0.872381101775136
72.42126092465628         0.8723186617131484
73.02958623085601         0.8722673579481507
73.44704349161344         0.8722344455524573
73.9993910656134          0.8721807062679962
74.42935210695066         0.8721374840301412
74.9882889069367          0.8720748600465684
75.43677127134242         0.8720265896176276
75.98666799450729         0.8719678801823472
76.42782936332429         0.8719186465478689
77.02135639867714         0.8718501177671069
77.46056789808563         0.8717962336784519
78.02338308213194         0.8717220768810701
78.46075874005152         0.8716780054250683
78.99498492127509         0.8716260712908263
79.39112415035277         0.8715848540686857
79.99273073616695         0.8715055467135012
80.45086680501265         0.8714558884742256
81.02224203457922         0.8713952854385858
81.46065278567045         0.871346293858706
82.02085216524421         0.8712743121740069
82.46052223059792         0.871222594226668
82.99366190831842         0.8711724892007764
83.39156668705658         0.8711251138876861
83.99137135937207         0.8710477789819201
84.44276629072874         0.8709886363668176
84.99105836031458         0.8709204091728502
85.46060442619762         0.870864106758688
86.00955454147282         0.8707984808823879
86.45267276390007         0.8707342887407741
87.03934353718859         0.8706699909521275
87.44926522137337         0.8706092622181515
87.97237324519335         0.870522686620957
88.54438952961164         0.8704618070173539
89.0270039971989          0.8704174745792908
89.43604602990285         0.8703461361420523
90.05287370054725         0.8702759513835993
90.44075791480816         0.870234559078761
90.98361585740713         0.8701514583859629
91.45561317221859         0.8700917570084585
91.9615635584542          0.8700331330645695
92.43944086785154         0.8699777496618435
92.97457731108403         0.8699034621753919
93.45204878335767         0.8698468967273564
93.98494554759816         0.86977985039553
94.43810425388483         0.869716669854858
94.97841903163771         0.8696519668630082
95.39639384410799         0.8696089815945427
95.99400128187733         0.8695281363946323
96.44287873649739         0.8694693964795078
97.02248489452461         0.8694021792169743
97.4233900579751          0.8693451750319448
98.05526000890058         0.8692671846155144
98.46066129239352         0.8692144385411511
99.01587840049876         0.869135867313982
99.43062801729718         0.8690965371888992
99.98622496287459         0.8690254876110702
100.42366595032638        0.8689736982747864
101.02421174210622        0.8688951659550032
101.46084539255543        0.8688405460623003
102.02330385825758        0.8687578096416622
102.46075987428901        0.868699599139471
102.99485024070498        0.8686402654766906
103.3934355389132         0.8685895173038134
103.99273229019082        0.8685016381159069
104.45087309134544        0.8684406392433621
105.02421174116279        0.8683714974277597
105.46084539342212        0.8683152909012345
106.02330385772586        0.8682348448815805
106.46075987478451        0.868174979906272
106.99393287741202        0.8681165446751978
107.40918929553163        0.8680618811264995
107.99418481503687        0.8679816779129808
108.44575184396928        0.8679235483769308
109.01961021913735        0.8678556664813388
109.45545478936049        0.8677993591469362
110.02161344345745        0.8677250774339728
110.4621978411709         0.8676635096041563
110.99139295335698        0.867587877402686
111.43340506813934        0.8675308213298799
111.99138826141376        0.8674621453165369
112.43374698520773        0.8674033412827187
112.99217091170277        0.8673337479358768
113.43013755660166        0.8672748154520922
113.99105925744198        0.8671950654600558
114.45772257328576        0.8671311354320312
114.98838571323938        0.867067658133176
115.42840765913456        0.8670099098390727
116.00746049229139        0.8669317118057647
116.45185533674328        0.8668734197630715
116.99726481429946        0.8668000566969679
117.45598356572953        0.8667363994541981
118.01019579787373        0.8666679684515813
118.46057008740331        0.8666033002721203
119.01227208302055        0.8665270040898024
119.47612937348174        0.866470759684889
119.98891412817238        0.8663917406766245
120.49045264078632        0.8663288449009012
120.98912886755318        0.8662580089451066
121.48652322026771        0.8661807102529595
121.99489805281843        0.8661144298927264
122.45772257328571        0.8660404207646024
122.99105925744135        0.865964471180961
123.45772257328565        0.8659026237733336
124.00748512454527        0.8658268242908779
124.47607161348935        0.865764736351347
125.00567693365804        0.865690891880858
125.45998221559773        0.8656295313906079
125.9910592574413         0.8655571510461524
126.45772257328565        0.8654943514733464
126.9910592574413         0.8654253420955323
127.45772257328565        0.8653600100355152
127.99030536194857        0.8652915281653859
128.44570676630042        0.8652284070874858
129.00359566118823        0.8651496958454338
129.4534121257425         0.8650866236099388
129.99105925744124        0.8650067819295478
130.45772257328548        0.8649445802736768
130.99105925744118        0.8648729822897262
131.45772257328542        0.8648087858693323
131.99039214618801        0.8647381649597682
132.447089958908          0.8646741535694524
133.00419098270714        0.8645986677228724
133.45320743369268        0.8645330500778035
133.99105925744118        0.8644515922896696
134.45772257328537        0.8643807156991106
134.99105925744112        0.8643058570324359
135.46522164713684        0.8642422330980879
135.99073749441231        0.8641711867045992
136.47410927773865        0.8641089626407545
137.003622882777          0.8640379249704807
137.46154853982273        0.8639572637244092
137.9918567732954         0.863874566971279
138.4929752989221         0.8638144818237513
138.99473745423546        0.8637424694148645
139.4538146761625         0.8636700424429884
139.95386387732805        0.8635868740558859
140.46656081234835        0.8635042219406336
141.003001476465          0.8634340859392227
141.46185398637033        0.863363970299184
141.99105925744084        0.8632642122732278
142.433384920952          0.8631833344979789
142.98390762666043        0.8631131317575813
143.42077785782863        0.8630565933299004
143.98618879583415        0.8629560097287305
144.44013027163578        0.8628760194123793
145.0074783973099         0.8627912989068606
145.46396865669317        0.8627045265128339
146.0481212198714         0.862619929398773
146.47718696501317        0.8625630179812387
146.98998992116333        0.8624710031925967
147.47711543361504        0.8624002915439661
147.98568980092773        0.8623251014919929
148.44719763956607        0.8622442710536692
149.00338368812606        0.8621601763690483
149.45348500938383        0.8620947858007363
149.9910592574406         0.862001920075361
150.45772257328497        0.8619255841245173
150.99105925744055        0.8618399888703826
151.45772257328497        0.8617686990312197
151.9903054387746         0.8616849332537201
152.44341216667215        0.861614134171103
152.97399827626413        0.8615133554022035
153.4517395999476         0.8614049370839821
154.07351456049605        0.8613164992114565
154.46654445683254        0.8612694842155263
154.98833881835577        0.8611565094659239
155.46544857437812        0.8610827641652834
155.96456428769648        0.8610270703979094
156.43842820470445        0.8609494498527409
156.99171105567615        0.8608570753833464
157.45464434529367        0.8607862449484323
158.00808025352183        0.8606905680753707
158.46393085365105        0.8606127824559817
158.98120587921227        0.8605355853372879
159.40950158234313        0.8604694122436617
159.9953750601752         0.8603613648856567
160.4564808099567         0.8602877032372261
161.00554060410195        0.8602076040504558
161.45669490125243        0.860134362602845
161.99105925744027        0.8600456880600129
162.45399018518253        0.8599770438483942
162.9712311137667         0.8598991789749625
163.44379740666716        0.8598073200540841
163.9938815939754         0.8597192655006032
164.4474124167793         0.8596518472176264
164.99105925744027        0.859553791868593
165.4577225732845         0.8594783359066163
165.99105925744016        0.859397967683301
166.4577225732845         0.8593256417305426
166.99105925744016        0.8592418822370627
167.45772257328446        0.8591630342976669
167.99771248721186        0.859076771006893
168.46717196567005        0.8590036507758385
169.00887885421923        0.8589286497326036
169.46106783299285        0.8588580848950049
169.99105925744004        0.8587645095182106
170.45772257328434        0.8586916083215864
170.99105925744004        0.8586061488158586
171.4577225732843         0.858534422269998
171.99105925743999        0.8584466599322474
172.4577225732843         0.8583736272176531
172.99105925744004        0.8582796994920007
173.45772257328417        0.8582043228582812
174.03122583178572        0.8581254572884804
174.4607388097162         0.8580547188848796
174.9910592574402         0.8579495508530455
175.45772257328395        0.8578660790841124
175.99105925744067        0.8577806960914379
176.47448715894006        0.8576983428991523
176.98860683610928        0.8576172175021458
177.44593867996826        0.8575368634820602
177.9888905438661         0.8574451913640458
178.4453295897589         0.8573729385501296
178.99105925744556        0.8572736031026502
179.4577225732869         0.8571966929740258
179.99105925744846        0.8570948967852647
180.45772257328952        0.8570148624866077
180.99105925745158        0.8569308152517067
181.45772257329259        0.8568531094291807
181.99105925745414        0.856766807136314
182.45772257329554        0.8566880437347171
182.99105925745573        0.8566012149917432
183.46302576151322        0.8565276592776324
183.9764598930695         0.85644504638266
184.4750327674921         0.8563562323231099
184.98961512787236        0.8562708558287099
185.4651441120498         0.856190269820267
185.9984698620296         0.8561158139255058
186.4631048655463         0.856027663340623
186.9917973327489         0.8559346230583394
187.43600850353096        0.8558650748656496
187.99105925745567        0.8557606555584244
188.45772257329946        0.8556846069735657
189.00838984652927        0.8556020616608535
189.45227993333896        0.8555287359411959
189.99105925745545        0.8554262495303669
190.4577225732993         0.8553464375608321
191.0115867829914         0.8552597338891994
191.46180899975622        0.855178671916476
191.99105925745533        0.8550738251708828
192.45772257329912        0.8549914442056221
192.99105925745528        0.8548882465512383
193.44700099454377        0.8548179819927406
193.94364894125948        0.8547355898445302
194.47100401505998        0.8546392368421454
194.98968217794413        0.8545605912998346
195.44115139780592        0.8544754620284748
195.99207127962995        0.8543836260263393
196.43781283168147        0.8543065371907579
196.99105925745488        0.8542033370292174
197.45772257329878        0.854116345182335
197.99446407745103        0.8540276066091044
198.44731104626146        0.8539553842009437
198.9859779688257         0.8538592674082238
199.4666256207592         0.8537841791510825
199.9700837088966         0.853696461555588
200.47902008678284        0.8536087456278373
200.97605275799407        0.8535035495296852
201.4895841536494         0.8533911590768919
201.99105925745448        0.8533112036131182
202.45867568399456        0.853237229136908
202.95700099290866        0.8531149692731818
203.46417292875935        0.8530258358207734
203.96624947013623        0.852958222756524
204.4516156497309         0.8528728725304227
205.00794527596656        0.8527791224852739
205.46200164815673        0.8526895001243991
206.01248896032837        0.8525999890168843
206.45626590927992        0.8525234146348544
206.99060430399345        0.8524325294310279
207.43406960082638        0.8523483271273895
207.9910592574539         0.852247005284259
208.447892207201          0.8521663591278918
208.9438795819492         0.8520839934500782
209.45772257329764        0.8519921995801493
209.9910592574538         0.8518996399595675
210.45772257329753        0.8518264329518022
210.99105925745368        0.8517347799072195
211.45772257329747        0.8516585281720127
211.99105925745368        0.8515664358707804
212.45772257329742        0.8514854975062859
212.9632528388849         0.8513796684904833
213.46088137311563        0.8512893860143811
213.99105925745351        0.8511949133126111
214.42231066866992        0.8510986801634896
214.9909850166482         0.8509796659401923
215.51155582076774        0.8509143323332979
215.99265942463416        0.8508297132596201
216.4577225732972         0.8507374420963798
216.9865679625787         0.8506591091096947
217.41935107964173        0.8505835575690416
217.99046857204758        0.8504795776298107
218.45079875281192        0.8504046069820949
218.9777774542353         0.8503174078836372
219.44265340149815        0.8502325823776367
219.991059257453          0.8501252337073756
220.45772257329685        0.8500397319392021
221.01496010875155        0.8499469095368368
221.45505326387877        0.8498697769594737
222.03345849573827        0.8497701692508461
222.46276088654417        0.849697154321726
222.99105925745272        0.8495996669230154
223.45772257329656        0.8495182161688997
223.99105925745266        0.8494283646652316
224.45772257329645        0.8493498543679743
224.99105925745255        0.8492555498504538
225.4577225732964         0.8491746870672869
225.9910592574525         0.8490718917801124
226.45772257329634        0.8489917369604839
227.02336440600004        0.8488917943636801
227.4546591042003         0.8488133496476935
228.02251197131994        0.8487218567389359
228.4547399398383         0.8486435665517514
228.9910592574522         0.8485454716371635
229.45772257329605        0.8484633943479236
229.99105925745215        0.8483712621240512
230.45772257329594        0.8482828755745031
230.99105925745204        0.8481868053332884
231.45772257329588        0.8481021186723097
231.99105925745198        0.8480109818778708
232.4577225732957         0.8479258207325405
232.99105925745192        0.8478363231492934
233.45772257329565        0.8477525401494004
233.9910592574518         0.8476563891876175
234.4577225732956         0.8475680942763155
234.9974074555343         0.8474815451677654
235.43766135995128        0.8473923682016995
236.01199700805358        0.8472886657204259
236.4592353722133         0.8472077301061967
237.00929284268585        0.8471095047238044
237.47202384467852        0.847035349673988
237.9939420934283         0.8469365516287395
238.45436517661375        0.8468564338982553
238.9651077283189         0.8467627995325747
239.45772257329526        0.8466653338056035
239.99105925745135        0.8465651576565517
240.45772257329514        0.8464791062813579
240.99294687599627        0.8463873108215123
241.4324283799067         0.8463032824069703
241.99262298011558        0.8461885573373347
242.4747744573756         0.8461086224727564
242.98836463649786        0.8460301751569796
243.47438469276665        0.8459404498400024
243.98165764849432        0.8458431916865813
244.46182300211086        0.8457578660293563
244.97630314021956        0.8456669789709401
245.4692694250262         0.8455710791635935
245.99224363718412        0.8454771161662162
246.4577225732947         0.8453762384879209
246.9910592574508         0.8452741980684746
247.46180157999743        0.8451867742745061
247.9913594618289         0.8450809206703581
248.45570697095985        0.8450005880827895
248.97298907946043        0.8449117342240935
249.42430534973084        0.8448272436193194
249.9946918769271         0.844713569575853
250.44387092555377        0.8446397449925029
250.9786997520049         0.8445268718941666
251.45519099118206        0.8444353833154666
252.0145895053069         0.8443290087495878
252.4392189753837         0.8442432691010444
253.0304734451194         0.844129014989002
253.43750032824164        0.8440554703992911
253.98105226352862        0.8439582306584812
254.3892581371278         0.8438901471905963
255.0208399425647         0.8437742396220549
255.45984561686288        0.8436946907549976
256.01426794908036        0.8435980270911756
256.4468072729809         0.8435189594075287
256.99105925744993        0.8434121198504713
257.4577225732937         0.8433274161927296
257.9910592574498         0.843227694772082
258.45772257329367        0.8431428081957288
258.99105925744976        0.8430482373403836
259.4585808880951         0.8429654612270678
259.9714129590841         0.8428735620892868
260.45857231981216        0.8427748384202656
260.9716090818108         0.8426822516433596
261.4575577015956         0.8425720609939821
261.9826835761355         0.8424747162761084
262.4908140280381         0.8423935670643994
262.99644904316625        0.8423030052287666
263.45772257329327        0.8422104533959938
263.99979064141326        0.84212276382194
264.43412043941134        0.8420410036448263
265.0240396718987         0.841930973672465
265.454575855097          0.8418409475178978
266.0198130263592         0.8417343671851912
266.44574995121263        0.841668006801978
266.97913889320245        0.8415517418439589
267.4612459913644         0.8414740914786757
267.95689404330346        0.8413738327078969
268.46214912426115        0.8412699686221792
268.9920472986279         0.8411736220089324
269.47794933283456        0.8410862870264848
269.9934642826674         0.8409869377240163
270.4739816458317         0.8409042905296735
270.9859611045398         0.8408138997529427
271.46928539052755        0.8407295028873674
271.98770219302406        0.8406370289002688
272.46720541803217        0.8405507316609611
272.98830607714024        0.8404609364347272
273.46460430096806        0.8403730939143561
273.98937596095834        0.8402832087233327
274.41941806726777        0.8401953411719847
274.99075825615466        0.8400822766003743
275.4258111724729         0.8399968954494467
275.9915306070181         0.8398669809228411
276.45772257329224        0.8397806579557348
276.9910592574483         0.8396904578802178
277.4577225732922         0.8396020614641219
277.9910592574482         0.8395047231040543
278.4610583858416         0.8394195856099779
278.98010666417184        0.8393216158473262
279.457722573292          0.8392246002310069
279.99105925744806        0.8391178838606551
280.4647938937066         0.8390189022285328
280.9905504202415         0.8389251885642696
281.47253981505463        0.8388397892538189
281.99522034247263        0.8387512901112643
282.4388457864437         0.8386613658347772
282.9977811690259         0.8385544663072463
283.44661478442447        0.8384601247066799
283.99937025258373        0.838342843701352
284.4763659372411         0.8382616589625689
284.9844434674851         0.8381609364044895
285.4304424613059         0.8380689637571416
286.0493244917489         0.8379591294187907
286.44310990957894        0.8378955244184549
287.07463431354967        0.8377848043914643
287.4650703742021         0.837714188146486
287.9910592574473         0.8375921259306034
288.4577225732912         0.8375011637476286
288.9910592574473         0.8373955950984314
289.4577225732911         0.8373060211414414
289.9966710511189         0.8371920589276757
290.4581459756832         0.8371185114798773
290.95768295384295        0.83703298281633
291.45772257329094        0.8369244036556129
292.00869750939194        0.8368343109211284
292.4479931365202         0.8367419317712014
293.0029759079294         0.836634631885967
293.43529195345303        0.8365356190421577
293.9979358145842         0.8364287254484227
294.45499909808956        0.8363525247357972
294.96463319854547        0.8362501787349507
295.4577225732906         0.8361431364055394
295.9910592574467         0.8360316573520294
296.4848415986596         0.8359515284571064
296.9792025527129         0.8358405006569984
297.4586411147657         0.835738569335088
298.02668634685006        0.8356064042497732
298.4608835739945         0.8355088844196339
299.0303906282406         0.8354096763226042
299.35883617978624        0.8353600256746586
299.9842771216024         0.8352260123421742
300.4578936986619         0.8351224461085864
301.0087384945772         0.8350223762763714
301.45238161911163        0.834936815947511
301.99105925744624        0.8348311996419184
302.45772257329           0.8347456386765835
303.0040480719222         0.8346531930234046
303.4565260077548         0.8345671829019412
303.9979239795891         0.8344735040321324
304.44060533042955        0.8343927882945605
304.991059257446          0.8342826577032649
305.4577225732898         0.8341956796745891
305.9910592574459         0.8340923105059325
306.4577225732897         0.8339982932202064
306.9910592574458         0.8338884712271392
307.4408088423372         0.8337923327277089
307.9790944593595         0.8336930839079402
308.4521856405023         0.8335988765909705
308.96699296960446        0.8335036746945672
309.47071683735925        0.8334087724890682
309.98484663986574        0.8333138562463683
310.47902221163355        0.8332268531441294
310.9868070265863         0.8331325115280261
311.46993506811333        0.833039509807284
311.9865458035148         0.8329411963030731
312.4692323356454         0.832852510036064
312.9868055170839         0.83275345991969
313.4577225732892         0.8326602330510081
313.9910592574453         0.832555157970547
314.45772257328906        0.8324699359501115
314.9910592574453         0.8323681196315226
315.45772257328895        0.8322785893760738
315.99105925744516        0.8321697354793377
316.45772257328895        0.8320832382834762
316.99105925744504        0.8319713765304722
317.45772257328883        0.8318794109995518
318.0009116562678         0.83177116628009
318.4588644918367         0.8316807787171553
319.00449973144976        0.8315553690684897
319.4766655013185         0.8314576157509675
320.0079042678617         0.8313710753063506
320.45084971710116        0.8312770114356249
320.99223324379284        0.8311752309684479
321.44077913579906        0.8310775109936374
322.00331080666535        0.8309676480229022
322.4672152142314         0.8308847448717203
323.00690887768485        0.8307789538726918
323.46007892098453        0.8306829869135786
323.9959541102045         0.8305691455953842
324.4571360174866         0.8304737672993552
324.9803575170125         0.8303429442821048
325.482501646512          0.8302349733258751
325.9814232662693         0.8301304740963982
326.47157611034595        0.830013871047556
326.999995050042          0.8299019196171357
327.45912571218037        0.8298128276413503
327.99105925744414        0.8297035334720632
328.4577225732879         0.829607226167694