% Model:              CMSL_AJB_O2_20210227_AdptLKR.mph
% Version:            COMSOL 5.5.0.359
% Date:               Feb 28 2021, 00:48
% Dimension:          1
% Nodes:              1208
% Expressions:        1
% Description:        Line graph
% cln1x                   Height
0                         0.9222978273875754
0.07644537880878488       0.9222978273230568
0.8127602615697924        0.9222978268645136
1.5333611862234306        0.9222978270598174
1.691313091440577         0.9222978269967295
1.8429681349171005        0.922297826982903
2.5419370262270036        0.9222978235759502
3.2174618005118987        0.9222978263667774
3.274558342129012         0.922297823879431
3.404895743775228         0.9222978234608412
3.955876995275162         0.9222978110658393
4.140306653069729         0.9222978082281214
4.689754130582742         0.9222977850415686
4.9906938820326445        0.9222977990365837
5.457047219396202         0.9222977900368263
5.655585384957362         0.9222977621781266
6.129825952080182         0.9222977171558897
6.526795916652645         0.9222976565917819
7.013540003992716         0.9222975653264979
7.396171616410868         0.9222973402317172
7.98464101751739          0.9222971498330872
8.354363779026244         0.9222969644469979
9.000420925930882         0.9222964066308899
9.443002490288109         0.9222959596176632
9.998298162578806         0.9222953344341931
10.467453214465024        0.9222947731954012
10.997184887368007        0.9222940564378102
11.423543391872272        0.9222933879683004
11.99901420936078         0.9222919541069173
12.474907543775771        0.9222909034132895
12.9889728045693          0.9222894624988205
13.468372678326318        0.9222879333123081
14.0151494739913          0.9222865706613284
14.464274135202345        0.9222848488974739
15.011120710228454        0.9222827010746393
15.462006218028478        0.922281051914997
15.996249183457735        0.922278371632276
16.45760037942813         0.9222761031583264
16.991022358406894        0.9222740808634587
17.387868124577608        0.9222713456908115
17.97390812048758         0.922267445770851
18.459738787339063        0.9222655491613154
19.015126087754936        0.9222620511192818
19.456953417825503        0.9222589612806481
19.99122301803868         0.9222542678804674
20.457522880578153        0.9222498319805792
20.991816970559114        0.9222453362697624
21.456958540726703        0.9222399522106814
21.992082734458506        0.9222341988803009
22.465177304545932        0.9222285311440039
22.99468565551541         0.9222217229376841
23.45601706578134         0.9222158212274563
23.991781244174263        0.9222083848581829
24.45108715582711         0.922202484306742
24.987735683116284        0.922195343278235
25.45481915394157         0.9221889265213512
25.989499946149294        0.9221816386094442
26.454353436130077        0.9221743459593408
26.987305351910095        0.9221656660647841
27.455936879918227        0.9221575030884994
27.98371566160165         0.9221486253287524
28.460673446828764        0.9221408624090779
28.986459129118657        0.9221310723656208
29.434175488268124        0.9221217530054138
29.98234061628682         0.9221088829646221
30.45698550812233         0.9220983738408676
30.98872887234228         0.9220870801455489
31.466293792747194        0.9220757320909139
31.985726064324012        0.9220639711349005
32.460581488074354        0.9220514217195723
32.98845594957436         0.9220369240066142
33.499963982363624        0.922026437536867
33.98755619883059         0.9220132804293051
34.4508611474314          0.9219974818847524
34.97375599796976         0.9219838358722597
35.433523469263946        0.9219673974614361
36.030909973715666        0.9219490003853754
36.49141286615696         0.9219381049638373
37.01697752822918         0.9219179161526557
37.48871948917213         0.9219010702388162
37.99714710422535         0.9218838441065447
38.46562238389396         0.9218682776544743
38.995657682003184        0.921850661925865
39.4594829601063          0.9218362745987843
39.97535304896587         0.9218176692669438
40.447898666307765        0.921799868311733
40.94794976231981         0.9217771525016929
41.45269734102067         0.9217569574878172
41.98986735275395         0.9217384745870101
42.450082874653674        0.921718698459315
42.9890934352357          0.9216931654438358
43.45798373806025         0.9216706928225411
44.014493317146815        0.9216538122452286
44.41013465787515         0.9216246873150961
45.039189791509386        0.921594283187545
45.419577315822835        0.9215864746168594
45.9517836630215          0.9215585985083276
46.430818837314405        0.9215363545270481
46.98057737818172         0.9215110815442628
47.43891133224773         0.9214867094166992
47.98868472333177         0.9214544404207028
48.483664945387005        0.9214331188662643
48.96861828489892         0.9214133521772594
49.44980538344299         0.9213863623324711
49.99164740172577         0.9213586841378804
50.44263051062799         0.9213380034421192
50.993197390963616        0.9213087786849787
51.45691129547126         0.9212855082673355
51.991035510655394        0.9212570724926646
52.45760323359596         0.921233464195961
52.99103794092318         0.9212054480140851
53.46998176026338         0.9211816576407879
53.98965312332709         0.9211523563250542
54.46449569876623         0.9211229941473624
54.98873717373891         0.921094515452334
55.46071529750509         0.9210638512488092
55.97994557701398         0.9210334204112438
56.5014107003019          0.9210075639499697
56.98917752660276         0.9209786637053566
57.45927018372345         0.920948407417706
57.96441676910541         0.9209163232058089
58.45811119115052         0.9208829573371632
58.97699945457083         0.920850782303987
59.461074000348844        0.9208133945206525
59.98269371781589         0.9207786290851961
60.52304041236175         0.9207505123324684
60.99924531228811         0.9207206213428705
61.459346302326026        0.9206870457783405
61.96819794805447         0.9206532108414887
62.47341238404846         0.9206210804402934
62.98622994912057         0.920587183526206
63.457682705356206        0.9205541349729665
63.99105189502359         0.9205179754266358
64.45768715615668         0.9204885319875852
65.00329127792327         0.920453137262353
65.45890950807319         0.9204241565272346
66.04322665172725         0.920388961079769
66.46288717513107         0.920363247500459
66.99105464832667         0.9203179244264359
67.45631318986682         0.9202861060409685
67.98378545437663         0.9202470636413466
68.44829493470456         0.9202086821866227
68.99859810087469         0.920179027592536
69.42946540451305         0.9201577236264245
69.99352637339246         0.9201122196102638
70.42626308437178         0.9200797418298043
70.99151590523553         0.9200338199063085
71.45771301639945         0.9199970640890585
71.97241865834104         0.919952090216091
72.42126092465628         0.9199054630127466
73.02958623085601         0.9198709032402456
73.44704349161344         0.9198469073759352
73.9993910656134          0.9198076061009332
74.42935210695066         0.9197766309453534
74.9882889069367          0.919730479789442
75.43677127134242         0.9196950234502297
75.98666799450729         0.919651933911471
76.42782936332429         0.919616467509381
77.02135639867714         0.9195701173748848
77.46056789808563         0.919530041804738
78.02338308213194         0.9194777583550313
78.46075874005152         0.9194447683556314
78.99498492127509         0.9194077405090757
79.39112415035277         0.9193778509629291
79.99273073616695         0.9193211510252844
80.45086680501265         0.9192848952019468
81.02224203457922         0.9192415239649275
81.46065278567045         0.9192071290397406
82.02085216524421         0.9191528911848373
82.46052223059792         0.9191154503066139
82.99366190831842         0.9190806351254633
83.39156668705658         0.9190469287279456
83.99137135937207         0.9189901752231435
84.44276629072874         0.9189487060165424
84.99105836031458         0.918900217235318
85.46060442619762         0.9188609022241456
86.00955454147282         0.9188143834585154
86.45267276390007         0.9187676264831923
87.03934353718859         0.9187214154382326
87.44926522137337         0.9186796222240186
87.97237324519335         0.9186180143621733
88.54438952961164         0.9185754096949292
89.0270039971989          0.9185452714122604
89.43604602990285         0.9184953461907168
90.05287370054725         0.9184462496761037
90.44075791480816         0.9184183741837512
90.98361585740713         0.9183604607733817
91.45561317221859         0.9183209075762571
91.9615635584542          0.9182821905751772
92.43944086785154         0.9182441207316958
92.97457731108403         0.9181931275017887
93.45204878335767         0.9181549855969872
93.98494554759816         0.9181096266489753
94.43810425388483         0.9180653162069754
94.97841903163771         0.9180206503054816
95.39639384410799         0.9179910016226651
95.99400128187733         0.9179361319944519
96.44287873649739         0.9178972047857896
97.02248489452461         0.9178517651461805
97.4233900579751          0.9178133468049101
98.05526000890058         0.9177615580603177
98.46066129239352         0.9177253949894422
99.01587840049876         0.9176708171647133
99.43062801729718         0.9176444968339388
99.98622496287459         0.917597022712145
100.42366595032638        0.9175612475760291
101.02421174210622        0.9175100066016298
101.46084539255543        0.9174724824042502
102.02330385825758        0.9174171165162051
102.46075987428901        0.9173772833802363
102.99485024070498        0.9173380857514317
103.3934355389132         0.9173016864282622
103.99273229019082        0.9172400297432819
104.45087309134544        0.9172004445026651
105.02421174116279        0.9171531727050982
105.46084539342212        0.9171131709682867
106.02330385772586        0.9170558978047691
106.46075987478451        0.9170137690211262
106.99393287741202        0.9169731335200191
107.40918929553163        0.9169340207011554
107.99418481503687        0.9168775486635601
108.44575184396928        0.9168402604194337
109.01961021913735        0.9167955456375403
109.45545478936049        0.9167573152926896
110.02161344345745        0.916706698041373
110.4621978411709         0.916668677127378
110.99139295335698        0.9166175604026273
111.43340506813934        0.9165797636093496
111.99138826141376        0.9165327613943436
112.43374698520773        0.9164949829997069
112.99217091170277        0.9164486428374875
113.43013755660166        0.9164096336701464
113.99105925744198        0.9163565961714157
114.45772257328576        0.9163154561189413
114.98838571323938        0.9162738025274919
115.42840765913456        0.9162346438239625
116.00746049229139        0.9161814334851486
116.45185533674328        0.916140850785597
116.99726481429946        0.9160919736867051
117.45598356572953        0.916048223496815
118.01019579787373        0.9160008744405821
118.46057008740331        0.9159567623702065
119.01227208302055        0.9159063702100129
119.47612937348174        0.9158688501975794
119.98891412817238        0.9158174880844931
120.49045264078632        0.9157752438951794
120.98912886755318        0.9157300532780351
121.48652322026771        0.9156815213745435
121.99489805281843        0.9156349885409952
122.45772257328571        0.9155873871419759
122.99105925744135        0.9155382779005242
123.45772257328565        0.9154947656958459
124.00748512454527        0.9154437954174938
124.47607161348935        0.9154012391854605
125.00567693365804        0.9153554128488073
125.45998221559773        0.9153126345213527
125.9910592574413         0.9152623118066444
126.45772257328565        0.9152196041153593
126.9910592574413         0.9151697409610561
127.45772257328565        0.915125050669509
127.99030536194857        0.9150762904500728
128.44570676630042        0.9150322734664302
129.00359566118823        0.9149798110024976
129.4534121257425         0.9149353281034991
129.99105925744124        0.9148813134798109
130.45772257328548        0.9148384124526286
130.99105925744118        0.9147872072361809
131.45772257328542        0.914743326311394
131.99039214618801        0.9146932837059351
132.447089958908          0.914650349713265
133.00419098270714        0.9145976017910801
133.45320743369268        0.9145536424135248
133.99105925744118        0.9144988043362066
134.45772257328537        0.9144529507317782
134.99105925744112        0.9144009865533963
135.46522164713684        0.9143553652053915
135.99073749441231        0.9143054310997529
136.47410927773865        0.9142620398098471
137.003622882777          0.914211249236767
137.46154853982273        0.9141585788528888
137.9918567732954         0.9141045081381857
138.4929752989221         0.9140611947223021
138.99473745423546        0.914012204026424
139.4538146761625         0.9139677369178578
139.95386387732805        0.9139135924173885
140.46656081234835        0.913859566468159
141.003001476465          0.9138109445671602
141.46185398637033        0.9137639404283504
141.99105925744084        0.9137034234281087
142.433384920952          0.9136531446250898
142.98390762666043        0.913607477783271
143.42077785782863        0.9135659759458731
143.98618879583415        0.913501305243909
144.44013027163578        0.9134516622603537
145.0074783973099         0.9133926327354949
145.46396865669317        0.9133410334378967
146.0481212198714         0.9132855536287054
146.47718696501317        0.9132462861605621
146.98998992116333        0.9131895544318678
147.47711543361504        0.9131416233265202
147.98568980092773        0.9130930098428758
148.44719763956607        0.913041304341173
149.00338368812606        0.9129854420484719
149.45348500938383        0.9129384735525339
149.9910592574406         0.9128807101627884
150.45772257328497        0.9128306516909875
150.99105925744055        0.9127749714048098
151.45772257328497        0.9127299405139757
151.9903054387746         0.9126756059246129
152.44341216667215        0.9126308756433834
152.97399827626413        0.9125668810254749
153.4517395999476         0.9125038192288973
154.07351456049605        0.9124487022592173
154.46654445683254        0.9124135975551068
154.98833881835577        0.9123445950018182
155.46544857437812        0.9122965386778801
155.96456428769648        0.9122546839937022
156.43842820470445        0.912206272576692
156.99171105567615        0.9121498866887691
157.45464434529367        0.9121039347877008
158.00808025352183        0.9120446721061207
158.46393085365105        0.9119961690461034
158.98120587921227        0.9119475415233773
159.40950158234313        0.9119052456380274
159.9953750601752         0.9118376786249074
160.4564808099567         0.9117922412323946
161.00554060410195        0.9117394519625867
161.45669490125243        0.9116935636010158
161.99105925744027        0.9116398662180618
162.45399018518253        0.9115940143210208
162.9712311137667         0.9115435204362438
163.44379740666716        0.9114880126124378
163.9938815939754         0.9114319642968697
164.4474124167793         0.9113876832906986
164.99105925744027        0.9113253318718306
165.4577225732845         0.9112781610256477
165.99105925744016        0.91122554364361
166.4577225732845         0.9111782522904004
166.99105925744016        0.9111267447019374
167.45772257328446        0.9110813433049636
167.99771248721186        0.9110248027988764
168.46717196567005        0.9109776338803215
169.00887885421923        0.9109281177630288
169.46106783299285        0.9108857900904594
169.99105925744004        0.9108279877914369
170.45772257328434        0.9107823892852644
170.99105925744004        0.9107276714400799
171.4577225732843         0.9106819195360119
171.99105925743999        0.9106274700575714
172.4577225732843         0.9105794392199724
172.99105925744004        0.9105199941928177
173.45772257328417        0.910471461342127
174.03122583178572        0.9104171328686137
174.4607388097162         0.9103712830568249
174.9910592574402         0.9103065221400196
175.45772257328395        0.9102555427756492
175.99105925744067        0.9102024862711567
176.47448715894006        0.9101542107869418
176.98860683610928        0.9101056580679412
177.44593867996826        0.910054989113266
177.9888905438661         0.9099979770529282
178.4453295897589         0.9099500510125391
178.99105925744556        0.9098875830783992
179.4577225732869         0.9098387809523258
179.99105925744846        0.9097763641743214
180.45772257328952        0.9097262470747988
180.99105925745158        0.9096733259028745
181.45772257329259        0.909623519839687
181.99105925745414        0.9095705221341986
182.45772257329554        0.9095199264025233
182.99105925745573        0.9094652310018873
183.46302576151322        0.9094197325964619
183.9764598930695         0.9093682241245917
184.4750327674921         0.9093147945410207
184.98961512787236        0.9092627599626218
185.4651441120498         0.9092142502725982
185.9984698620296         0.9091672184401177
186.4631048655463         0.909113488437734
186.9917973327489         0.9090559395181461
187.43600850353096        0.9090121089620924
187.99105925745567        0.9089484528654356
188.45772257329946        0.9089019160137448
189.00838984652927        0.9088504486405297
189.45227993333896        0.9088047315116113
189.99105925745545        0.9087432787955608
190.4577225732993         0.9086914125659896
191.0115867829914         0.9086349849310232
191.46180899975622        0.9085824659095003
191.99105925745533        0.9085196186550092
192.45772257329912        0.9084691985404929
192.99105925745528        0.9084053360842795
193.44700099454377        0.9083627341767881
193.94364894125948        0.90831192027262
194.47100401505998        0.9082512757645611
194.98968217794413        0.9082028456263582
195.44115139780592        0.9081521198942442
195.99207127962995        0.908094213366616
196.43781283168147        0.9080478649691719
196.99105925745488        0.907984258795031
197.45772257329878        0.9079330527590208
197.99446407745103        0.9078794185726909
198.44731104626146        0.9078334480074861
198.9859779688257         0.9077744227716028
199.4666256207592         0.9077295412490569
199.9700837088966         0.9076749483639576
200.47902008678284        0.9076182581853225
200.97605275799407        0.907552393914704
201.4895841536494         0.90748209086327
201.99105925745448        0.9074321012476652
202.45867568399456        0.9073891390866431
202.95700099290866        0.9073162742717114
203.46417292875935        0.9072604524856485
203.96624947013623        0.9072206985502195
204.4516156497309         0.9071668700228203
205.00794527596656        0.9071088106250661
205.46200164815673        0.9070538227326832
206.01248896032837        0.9069992981510169
206.45626590927992        0.906952035923686
206.99060430399345        0.9068964382214909
207.43406960082638        0.9068454714631176
207.9910592574539         0.9067824176715712
208.447892207201          0.906733255665474
208.9438795819492         0.9066832919317435
209.45772257329764        0.9066258380253298
209.9910592574538         0.9065695784285492
210.45772257329753        0.9065232416241606
210.99105925745368        0.9064657164325164
211.45772257329747        0.9064178944706585
211.99105925745368        0.9063558334067915
212.45772257329742        0.9063074442350674
212.9632528388849         0.906240840603627
213.46088137311563        0.9061830315167136
213.99105925745351        0.9061274385123669
214.42231066866992        0.9060677318983623
214.9909850166482         0.9059937900917228
215.51155582076774        0.905955174082275
215.99265942463416        0.9059048818415446
216.4577225732972         0.905848047735589
216.9865679625787         0.9057989975023846
217.41935107964173        0.9057527269099515
217.99046857204758        0.9056871331086602
218.45079875281192        0.9056399854435755
218.9777774542353         0.9055883221613815
219.44265340149815        0.9055357818627932
219.991059257453          0.9054741593373551
220.45772257329685        0.9054211656586773
221.01496010875155        0.9053637206071653
221.45505326387877        0.9053146597370914
222.03345849573827        0.9052517362747722
222.46276088654417        0.905206483596881
222.99105925745272        0.9051423374510285
223.45772257329656        0.9050920592332723
223.99105925745266        0.9050367550372865
224.45772257329645        0.9049870505669122
224.99105925745255        0.9049288392084658
225.4577225732964         0.9048783142804981
225.9910592574525         0.9048175653242271
226.45772257329634        0.9047683520488707
227.02336440600004        0.9047117518612673
227.4546591042003         0.9046662732306496
228.02251197131994        0.9046052737137289
228.4547399398383         0.904558829248731
228.9910592574522         0.9044943444315826
229.45772257329605        0.904439240194471
229.99105925745215        0.9043803004706809
230.45772257329594        0.9043246300243204
230.99105925745204        0.9042657250690229
231.45772257329588        0.90421296306199
231.99105925745198        0.9041546952457229
232.4577225732957         0.9041033259322199
232.99105925745192        0.9040440964743646
233.45772257329565        0.9039911403485388
233.9910592574518         0.9039296293978706
234.4577225732956         0.9038748126560289
234.9974074555343         0.9038210809502781
235.43766135995128        0.9037680610041835
236.01199700805358        0.9037023651747237
236.4592353722133         0.9036519240469918
237.00929284268585        0.9035908604719991
237.47202384467852        0.903545527448906
237.9939420934283         0.903483172606084
238.45436517661375        0.9034318001183941
238.9651077283189         0.9033735999875416
239.45772257329526        0.9033122454106925
239.99105925745135        0.9032508776395846
240.45772257329514        0.903198234270904
240.99294687599627        0.9031408979879488
241.4324283799067         0.9030893503464532
241.99262298011558        0.9030153099654682
242.4747744573756         0.9029659774430834
242.98836463649786        0.9029199107205235
243.47438469276665        0.9028672022314633
243.98165764849432        0.9028097284366773
244.46182300211086        0.9027533876171381
244.97630314021956        0.9026960382263798
245.4692694250262         0.9026380411595508
245.99224363718412        0.902578464133502
246.4577225732947         0.9025175042297758
246.9910592574508         0.9024534983731698
247.46180157999743        0.9024016069233005
247.9913594618289         0.9023365754263207
248.45570697095985        0.9022867424676542
248.97298907946043        0.9022338152878786
249.42430534973084        0.9021787532202362
249.9946918769271         0.9021096089285996
250.44387092555377        0.9020627503459331
250.9786997520049         0.9019951841516638
251.45519099118206        0.9019393751781895
252.0145895053069         0.9018741471917647
252.4392189753837         0.9018238242874523
253.0304734451194         0.9017581660199427
253.43750032824164        0.9017134652228527
253.98105226352862        0.9016525986076874
254.3892581371278         0.901608847887309
255.0208399425647         0.9015347438469081
255.45984561686288        0.9014855992997928
256.01426794908036        0.9014237471048376
256.4468072729809         0.9013730182115278
256.99105925744993        0.9013042468972755
257.4577225732937         0.901248897682075
257.9910592574498         0.9011873705588896
258.45772257329367        0.9011317160901874
258.99105925744976        0.9010723030808436
259.4585808880951         0.9010225395913078
259.9714129590841         0.9009632247783672
260.45857231981216        0.900901599805872
260.9716090818108         0.9008478158716171
261.4575577015956         0.9007807854805086
261.9826835761355         0.9007190119719257
262.4908140280381         0.9006673218537762
262.99644904316625        0.9006094414539035
263.45772257329327        0.9005502677096823
263.99979064141326        0.9004940463009107
264.43412043941134        0.9004432613514787
265.0240396718987         0.9003751325710444
265.454575855097          0.9003199172767298
266.0198130263592         0.9002517069899663
266.44574995121263        0.900207661079836
266.97913889320245        0.9001306955773429
267.4612459913644         0.9000796933443536
267.95689404330346        0.9000183279751169
268.46214912426115        0.8999502109287387
268.9920472986279         0.8998879873400548
269.47794933283456        0.8998342240982484
269.9934642826674         0.8997731570872651
270.4739816458317         0.8997200571540158
270.9859611045398         0.8996657108739844
271.46928539052755        0.8996113236659857
271.98770219302406        0.8995537693182258
272.46720541803217        0.8995005415814008
272.98830607714024        0.8994400490179135
273.46460430096806        0.899384741667809
273.98937596095834        0.8993300260731661
274.41941806726777        0.899274623700673
274.99075825615466        0.899204256104301
275.4258111724729         0.8991540695842398
275.9915306070181         0.8990767753816532
276.45772257329224        0.8990264563332913
276.9910592574483         0.8989648712260592
277.4577225732922         0.8989107039055253
277.9910592574482         0.8988519654021189
278.4610583858416         0.8988003770200763
278.98010666417184        0.8987425472855156
279.457722573292          0.8986816239911444
279.99105925744806        0.8986165520501448
280.4647938937066         0.8985589822989231
280.9905504202415         0.8985005336203374
281.47253981505463        0.8984465730880538
281.99522034247263        0.8983922712761019
282.4388457864437         0.8983353908085943
282.9977811690259         0.8982699676265454
283.44661478442447        0.8982119594334919
283.99937025258373        0.8981383251649458
284.4763659372411         0.8980867112727536
284.9844434674851         0.8980258729662645
285.4304424613059         0.8979639403622477
286.0493244917489         0.8978956621133872
286.44310990957894        0.8978598826086142
287.07463431354967        0.8977884403169911
287.4650703742021         0.8977443036958828
287.9910592574473         0.8976618325251238
288.4577225732912         0.8976025023002436
288.9910592574473         0.8975392051969161
289.4577225732911         0.8974807753805504
289.9966710511189         0.897414075050596
290.4581459756832         0.8973651783519799
290.95768295384295        0.897310301248205
291.45772257329094        0.897237448572125
292.00869750939194        0.8971818172625246
292.4479931365202         0.8971258924740397
293.0029759079294         0.897055364109562
293.43529195345303        0.8969959326739321
293.9979358145842         0.8969288313374418
294.45499909808956        0.8968941080829331
294.96463319854547        0.8968357277555516
295.4577225732906         0.8967663252668991
295.9910592574467         0.8966992257096168
296.4848415986596         0.89665264667822
296.9792025527129         0.8965845999583892
297.4586411147657         0.8965140481957217
298.02668634685006        0.8964312757704215
298.4608835739945         0.896367539891562
299.0303906282406         0.896306502181203
299.35883617978624        0.8962843793948545
299.9842771216024         0.89619642823974
300.4578936986619         0.8961322341719988
301.0087384945772         0.8960733182277429
301.45238161911163        0.8960199239933939
301.99105925744624        0.8959525652872191
302.45772257329           0.8958982381356493
303.0040480719222         0.8958399586293182
303.4565260077548         0.8957859672566397
303.9979239795891         0.8957259595431827
304.44060533042955        0.8956745964143822
304.991059257446          0.8956046046021493
305.4577225732898         0.8955477541726833
305.9910592574459         0.8954877941686157
306.4577225732897         0.8954300460148128
306.9910592574458         0.8953696182731758
307.4408088423372         0.8953106131529911
307.9790944593595         0.8952495995158176
308.4521856405023         0.8951964852118584
308.96699296960446        0.8951373679315611
309.47071683735925        0.8950788096095424
309.98484663986574        0.8950204719630316
310.47902221163355        0.8949633680342461
310.9868070265863         0.8949036432783404
311.46993506811333        0.894844264662843
311.9865458035148         0.8947827786322162
312.4692323356454         0.8947247864218315
312.9868055170839         0.8946643198454983
313.4577225732892         0.8946036930441608
313.9910592574453         0.8945405442651372
314.45772257328906        0.8944866054728812
314.9910592574453         0.8944216207374319
315.45772257328895        0.8943686255712039
315.99105925744516        0.8943015362197926
316.45772257328895        0.8942478926789708
316.99105925744504        0.8941794827135319
317.45772257328883        0.8941219939608788
318.0009116562678         0.8940587789150813
318.4588644918367         0.8940050594176755
319.00449973144976        0.8939288394209
319.4766655013185         0.8938713008060872
320.0079042678617         0.893821953644318
320.45084971710116        0.8937666333911072
320.99223324379284        0.8937022467033973
321.44077913579906        0.8936474227688789
322.00331080666535        0.8935772050658906
322.4672152142314         0.8935261533978465
323.00690887768485        0.8934626345499227
323.46007892098453        0.893400282673293
323.9959541102045         0.8933276289047255
324.4571360174866         0.8932729422321315
324.9803575170125         0.8931970195855959
325.482501646512          0.8931389100832792
325.9814232662693         0.8930772611845781
326.47157611034595        0.8930104936874739
326.999995050042          0.8929590163487596
327.45912571218037        0.892903629385267
327.99105925744414        0.892833313498919
328.4577225732879         0.892775621547807