% Model:              CMSL_AJB_O2_20210227_AdptLKR.mph
% Version:            COMSOL 5.5.0.359
% Date:               Feb 28 2021, 00:54
% Dimension:          1
% Nodes:              1208
% Expressions:        1
% Description:        Line graph
% cln1x                   Height
0                         0.8943574677937555
0.07644537880878488       0.8945023187592005
0.8127602615697924        0.8958876022890785
1.5333611862234306        0.8971669779118618
1.691313091440577         0.8974612007119581
1.8429681349171005        0.8977174132205383
2.5419370262270036        0.8989555352684195
3.2174618005118987        0.9000285850905253
3.274558342129012         0.9001268327287981
3.404895743775228         0.9003299223198654
3.955876995275162         0.9012533690673903
4.140306653069729         0.9015289408426095
4.689754130582742         0.9023947632101259
4.9906938820326445        0.9028585634390592
5.457047219396202         0.9035386762926889
5.655585384957362         0.9038335184294585
6.129825952080182         0.9045342883911539
6.526795916652645         0.9050847946594947
7.013540003992716         0.9057567158189668
7.396171616410868         0.9062841551192405
7.98464101751739          0.9070685622849104
8.354363779026244         0.9075342877056309
9.000420925930882         0.9083700992571253
9.443002490288109         0.9089112729020041
9.998298162578806         0.9095894687812978
10.467453214465024        0.91013800326683
10.997184887368007        0.9107381254103486
11.423543391872272        0.9112111100750978
11.99901420936078         0.9118509545439323
12.474907543775771        0.912356509369183
12.9889728045693          0.9128939565276744
13.468372678326318        0.9133795184257214
14.0151494739913          0.9139107771116388
14.464274135202345        0.9143437702110274
15.011120710228454        0.9148609704776091
15.462006218028478        0.9152749495366703
15.996249183457735        0.9157633588097499
16.45760037942813         0.9161719304847292
16.991022358406894        0.916618145112686
17.387868124577608        0.9169599119988774
17.97390812048758         0.917448351221735
18.459738787339063        0.9178189085616053
19.015126087754936        0.9182392968592571
19.456953417825503        0.9185711117590709
19.99122301803868         0.9189709562554312
20.457522880578153        0.9193056813354183
20.991816970559114        0.919678233028195
21.456958540726703        0.919996484800782
21.992082734458506        0.9203521337608618
22.465177304545932        0.9206585442910238
22.99468565551541         0.9209938736410019
23.45601706578134         0.9212833326625951
23.991781244174263        0.9216081296278322
24.45108715582711         0.921879350408215
24.987735683116284        0.9221916397052965
25.45481915394157         0.9224518069248986
25.989499946149294        0.9227420378526537
26.454353436130077        0.9229880595234665
26.987305351910095        0.9232615216253075
27.455936879918227        0.9234984682690761
27.98371566160165         0.9237548919019474
28.460673446828764        0.9239756316323262
28.986459129118657        0.9242155742919401
29.434175488268124        0.924417064221748
29.98234061628682         0.9246613749502188
30.45698550812233         0.9248624574786224
30.98872887234228         0.9250833538233783
31.466293792747194        0.9252757377357128
31.985726064324012        0.9254798896084612
32.460581488074354        0.9256620635639171
32.98845594957436         0.925860044510927
33.499963982363624        0.9260361589394821
33.98755619883059         0.9262049525976456
34.4508611474314          0.9263663997041788
34.97375599796976         0.9265398950312699
35.433523469263946        0.9266921017910037
36.030909973715666        0.926880051558848
36.49141286615696         0.927014186619
37.01697752822918         0.9271771634312362
37.48871948917213         0.9273176367209136
37.99714710422535         0.9274605308179171
38.46562238389396         0.9275901959544579
38.995657682003184        0.9277327292227057
39.4594829601063          0.9278533503618457
39.97535304896587         0.9279838993243048
40.447898666307765        0.9281067137777741
40.94794976231981         0.928234322867456
41.45269734102067         0.928351763263962
41.98986735275395         0.9284720389556771
42.450082874653674        0.9285736194405043
42.9890934352357          0.9286873151809133
43.45798373806025         0.9287869508104327
44.014493317146815        0.9288950215284486
44.41013465787515         0.9289702208454618
45.039189791509386        0.9290850599248962
45.419577315822835        0.9291506707444065
45.9517836630215          0.9292421381232153
46.430818837314405        0.9293196983889761
46.98057737818172         0.9294067764835162
47.43891133224773         0.9294731504260927
47.98868472333177         0.9295525009456972
48.483664945387005        0.9296210058054171
48.96861828489892         0.9296867168233635
49.44980538344299         0.929746029160746
49.99164740172577         0.9298137041340698
50.44263051062799         0.9298662238984474
50.993197390963616        0.9299282901607855
51.45691129547126         0.9299775287901242
51.991035510655394        0.9300339344057289
52.45760323359596         0.9300792209362999
52.99103794092318         0.9301298037417002
53.46998176026338         0.9301740323609509
53.98965312332709         0.9302199433549336
54.46449569876623         0.9302590672895226
54.98873717373891         0.9302979333618445
55.46071529750509         0.9303334489275045
55.97994557701398         0.9303695812942372
56.5014107003019          0.9304073497542096
56.98917752660276         0.9304395608888457
57.45927018372345         0.9304673187603985
57.96441676910541         0.9304991485995378
58.45811119115052         0.9305253692695925
58.97699945457083         0.930554379515834
59.461074000348844        0.9305784458318187
59.98269371781589         0.93060186073667
60.52304041236175         0.9306287321256375
60.99924531228811         0.9306486635109109
61.459346302326026        0.9306629236480284
61.96819794805447         0.930682025210833
62.47341238404846         0.9306997266739216
62.98622994912057         0.9307172295051415
63.457682705356206        0.9307289990519301
63.99105189502359         0.9307423619764326
64.45768715615668         0.9307549041317624
65.00329127792327         0.9307654345462445
65.45890950807319         0.9307744567079719
66.04322665172725         0.93078952595147
66.46288717513107         0.9307971505571794
66.99105464832667         0.930798775725386
67.45631318986682         0.9308040029442628
67.98378545437663         0.9308053567497881
68.44829493470456         0.9308037905234325
68.99859810087469         0.9308091696246249
69.42946540451305         0.9308150555319837
69.99352637339246         0.9308145157717036
70.42626308437178         0.9308124277753284
70.99151590523553         0.9308065852395765
71.45771301639945         0.9308007209664309
71.97241865834104         0.9307906881762104
72.42126092465628         0.9307752699080174
73.02958623085601         0.9307724574594763
73.44704349161344         0.9307684078219228
73.9993910656134          0.9307591438492141
74.42935210695066         0.9307491884999044
74.9882889069367          0.9307364057397893
75.43677127134242         0.9307270178286722
75.98666799450729         0.930715944615883
76.42782936332429         0.9307049911412875
77.02135639867714         0.9306909363260183
77.46056789808563         0.93067776029313
78.02338308213194         0.9306609942812262
78.46075874005152         0.930651389841983
78.99498492127509         0.9306410851729034
79.39112415035277         0.9306321003994804
79.99273073616695         0.9306082591007684
80.45086680501265         0.9305953330415331
81.02224203457922         0.9305807119696086
81.46065278567045         0.9305682101077204
82.02085216524421         0.9305460660977803
82.46052223059792         0.9305313556419269
82.99366190831842         0.9305173111407594
83.39156668705658         0.9305031796553425
83.99137135937207         0.9304749461030437
84.44276629072874         0.9304564407914566
84.99105836031458         0.9304337695331449
85.46060442619762         0.9304161275250491
86.00955454147282         0.9303960172802535
86.45267276390007         0.9303730877670666
87.03934353718859         0.9303487491360753
87.44926522137337         0.9303259122425052
87.97237324519335         0.9302895912288376
88.54438952961164         0.9302680315634666
89.0270039971989          0.9302518884316954
89.43604602990285         0.9302197532074188
90.05287370054725         0.9301897653468401
90.44075791480816         0.930174419217932
90.98361585740713         0.9301394466849832
91.45561317221859         0.9301162698174106
91.9615635584542          0.930092211356483
92.43944086785154         0.9300680028223762
92.97457731108403         0.9300370672218458
93.45204878335767         0.9300155100759565
93.98494554759816         0.9299902526227043
94.43810425388483         0.9299628344046779
94.97841903163771         0.9299353449078912
95.39639384410799         0.9299170768269261
95.99400128187733         0.9298788358274129
96.44287873649739         0.929851671875966
97.02248489452461         0.929823302752546
97.4233900579751          0.9297968341091749
98.05526000890058         0.9297648613606436
98.46066129239352         0.9297415563609346
99.01587840049876         0.9297084520840961
99.43062801729718         0.9296930461700879
99.98622496287459         0.9296628077663552
100.42366595032638        0.9296387373916826
101.02421174210622        0.9296040855845977
101.46084539255543        0.9295792261611118
102.02330385825758        0.9295441019640095
102.46075987428901        0.9295177484609374
102.99485024070498        0.9294913839995737
103.3934355389132         0.9294670318725475
103.99273229019082        0.9294217280617724
104.45087309134544        0.9293916689889046
105.02421174116279        0.9293628201933556
105.46084539342212        0.9293363440533638
106.02330385772586        0.9292999594898733
106.46075987478451        0.9292728061775501
106.99393287741202        0.9292439917238636
107.40918929553163        0.9292189995110018
107.99418481503687        0.9291763948732618
108.44575184396928        0.9291486735235845
109.01961021913735        0.9291165869465524
109.45545478936049        0.929089458295514
110.02161344345745        0.9290524902185446
110.4621978411709         0.9290234377703293
110.99139295335698        0.9289874649819461
111.43340506813934        0.9289584149325326
111.99138826141376        0.9289233738552913
112.43374698520773        0.9288933856566766
112.99217091170277        0.9288571993096607
113.43013755660166        0.9288268008115991
113.99105925744198        0.9287820845263126
114.45772257328576        0.9287500332291228
114.98838571323938        0.9287198421074379
115.42840765913456        0.9286902715906157
116.00746049229139        0.9286513124042709
116.45185533674328        0.9286200718307057
116.99726481429946        0.9285810898960938
117.45598356572953        0.9285477536484766
118.01019579787373        0.9285092503723028
118.46057008740331        0.9284756516934667
119.01227208302055        0.9284355645705086
119.47612937348174        0.928406376706815
119.98891412817238        0.9283653314701132
120.49045264078632        0.92833247711042
120.98912886755318        0.9282932740826757
121.48652322026771        0.9282551623674518
121.99489805281843        0.9282182428178173
122.45772257328571        0.9281787372149839
122.99105925744135        0.928140510003339
123.45772257328565        0.9281071133247167
124.00748512454527        0.928066234177536
124.47607161348935        0.9280322743706726
125.00567693365804        0.9279938445601829
125.45998221559773        0.9279605675597786
125.9910592574413         0.9279184869885587
126.45772257328565        0.9278842890668618
126.9910592574413         0.9278442854473296
127.45772257328565        0.9278087759048326
127.99030536194857        0.9277694463038669
128.44570676630042        0.9277343231738243
129.00359566118823        0.9276890877148388
129.4534121257425         0.9276537821305972
129.99105925744124        0.927609529493467
130.45772257328548        0.9275745323767082
130.99105925744118        0.927533982907093
131.45772257328542        0.9274976519302254
131.99039214618801        0.9274573036508125
132.447089958908          0.9274215020511203
133.00419098270714        0.9273768724883418
133.45320743369268        0.9273415392547304
133.99105925744118        0.9272969266019438
134.45772257328537        0.9272584084752733
134.99105925744112        0.9272174528285623
135.46522164713684        0.9271788185437614
135.99073749441231        0.9271384630577926
136.47410927773865        0.9271029060495659
137.003622882777          0.9270618914303289
137.46154853982273        0.9270183340117296
137.9918567732954         0.92697449543944
138.4929752989221         0.9269393773122896
138.99473745423546        0.9269006225723896
139.4538146761625         0.9268632703536357
139.95386387732805        0.9268181943271132
140.46656081234835        0.9267724053201543
141.003001476465          0.9267326077916288
141.46185398637033        0.926692413905879
141.99105925744084        0.9266437970142761
142.433384920952          0.9266012694364105
142.98390762666043        0.9265631435611581
143.42077785782863        0.9265309401841224
143.98618879583415        0.9264772721453023
144.44013027163578        0.9264364192654707
145.0074783973099         0.9263895005821102
145.46396865669317        0.926347652020342
146.0481212198714         0.9263037309446066
146.47718696501317        0.9262735197716998
146.98998992116333        0.9262263358766989
147.47711543361504        0.9261889304964108
147.98568980092773        0.9261477399421234
148.44719763956607        0.9261042815772869
149.00338368812606        0.9260581923268231
149.45348500938383        0.9260225994080754
149.9910592574406         0.9259763760661074
150.45772257328497        0.925938137147372
150.99105925744055        0.9258949610679189
151.45772257328497        0.9258551463140958
151.9903054387746         0.9258112364779602
152.44341216667215        0.9257750374156593
152.97399827626413        0.9257246833636372
153.4517395999476         0.9256717209398986
154.07351456049605        0.9256263859363816
154.46654445683254        0.9256036276621189
154.98833881835577        0.9255460590770616
155.46544857437812        0.9255120734162481
155.96456428769648        0.9254846521397548
156.43842820470445        0.9254443958604269
156.99171105567615        0.9253989039869782
157.45464434529367        0.9253620300896608
158.00808025352183        0.9253156994932002
158.46393085365105        0.9252750944671078
158.98120587921227        0.9252370281342265
159.40950158234313        0.9252018007167802
159.9953750601752         0.925145415853977
160.4564808099567         0.9251075477059936
161.00554060410195        0.925065942282072
161.45669490125243        0.9250277316048845
161.99105925744027        0.9249816945326732
162.45399018518253        0.9249444287743889
162.9712311137667         0.9249032434537542
163.44379740666716        0.924854264019673
163.9938815939754         0.9248078252686408
164.4474124167793         0.9247767639000157
164.99105925744027        0.9247255756959175
165.4577225732845         0.9246871184193686
165.99105925744016        0.9246446800215126
166.4577225732845         0.9246066242783479
166.99105925744016        0.9245634901421911
167.45772257328446        0.9245261772604249
167.99771248721186        0.924479843468582
168.46717196567005        0.9244413521383901
169.00887885421923        0.9244004083253974
169.46106783299285        0.9243625822134448
169.99105925744004        0.9243142279593075
170.45772257328434        0.9242738867407598
170.99105925744004        0.9242297239822401
171.4577225732843         0.9241908270836565
171.99105925743999        0.924146192106943
172.4577225732843         0.9241070795722348
172.99105925744004        0.9240570804266452
173.45772257328417        0.9240178079836472
174.03122583178572        0.923977217211203
174.4607388097162         0.9239412269742726
174.9910592574402         0.9238880722070173
175.45772257328395        0.9238472762549396
175.99105925744067        0.9238048571038708
176.47448715894006        0.9237677410011089
176.98860683610928        0.9237284444813757
177.44593867996826        0.9236863225204865
177.9888905438661         0.9236409302627423
178.4453295897589         0.9236040327013488
178.99105925744556        0.9235541242558799
179.4577225732869         0.9235156179445604
179.99105925744846        0.9234664318712346
180.45772257328952        0.9234268405178883
180.99105925745158        0.9233835509737809
181.45772257329259        0.9233442452339691
181.99105925745414        0.9233006117563102
182.45772257329554        0.9232599746678951
182.99105925745573        0.9232162232744093
183.46302576151322        0.9231801689137253
183.9764598930695         0.9231381022789085
184.4750327674921         0.9230914377015974
184.98961512787236        0.9230465437018868
185.4651441120498         0.9230065697213993
185.9984698620296         0.9229689999070155
186.4631048655463         0.9229211391744302
186.9917973327489         0.9228732084691541
187.43600850353096        0.922835432691216
187.99105925745567        0.9227811061063604
188.45772257329946        0.9227392095162823
189.00838984652927        0.9226972856181671
189.45227993333896        0.9226576639959101
189.99105925745545        0.9226031702388351
190.4577225732993         0.9225584942861969
191.0115867829914         0.9225126555262325
191.46180899975622        0.9224694880587356
191.99105925745533        0.9224153522367435
192.45772257329912        0.9223739423597032
192.99105925745528        0.9223219728593977
193.44700099454377        0.9222919291882328
193.94364894125948        0.9222476413989401
194.47100401505998        0.9221955254005719
194.98968217794413        0.9221553641445748
195.44115139780592        0.922110916530474
195.99207127962995        0.9220623701857128
196.43781283168147        0.9220220737550142
196.99105925745488        0.9219660540878045
197.45772257329878        0.9219196089844282
197.99446407745103        0.9218742339245476
198.44731104626146        0.9218365885227022
198.9859779688257         0.9217853944446518
199.4666256207592         0.9217483967369424
199.9700837088966         0.9217014961296125
200.47902008678284        0.9216545880380522
200.97605275799407        0.9215985898194236
201.4895841536494         0.9215376023625992
201.99105925745448        0.9214979502062794
202.45867568399456        0.9214594367804814
202.95700099290866        0.9214023194533378
203.46417292875935        0.9213548830157187
203.96624947013623        0.9213205774893268
204.4516156497309         0.921275348274355
205.00794527596656        0.9212267650601323
205.46200164815673        0.9211824405935175
206.01248896032837        0.9211357103184536
206.45626590927992        0.9210967021594574
206.99060430399345        0.921050163416401
207.43406960082638        0.9210087296907872
207.9910592574539         0.9209547753821469
208.447892207201          0.9209133651744408
208.9438795819492         0.9208708701432056
209.45772257329764        0.9208213409741963
209.9910592574538         0.9207739377919355
210.45772257329753        0.9207354504123257
210.99105925745368        0.9206872693087799
211.45772257329747        0.92064843818552
211.99105925745368        0.9205974284251762
212.45772257329742        0.9205561270964139
212.9632528388849         0.9204987323650475
213.46088137311563        0.9204501391750128
213.99105925745351        0.9204034168216
214.42231066866992        0.9203523093484902
214.9909850166482         0.9202869532521045
215.51155582076774        0.9202529646129991
215.99265942463416        0.9202115465396937
216.4577225732972         0.9201648834076053
216.9865679625787         0.9201263526786638
217.41935107964173        0.9200857375286506
217.99046857204758        0.9200304084223802
218.45079875281192        0.9199883752549698
218.9777774542353         0.919943842634516
219.44265340149815        0.919894234737094
219.991059257453          0.9198364942777445
220.45772257329685        0.919783050526416
221.01496010875155        0.9197316498729159
221.45505326387877        0.9196715906237207
222.03345849573827        0.9196160759630055
222.46276088654417        0.9195706027693146
222.99105925745272        0.9195078498006114
223.45772257329656        0.9194624176387973
223.99105925745266        0.9194093618527681
224.45772257329645        0.9193704053667645
224.99105925745255        0.9193159419639946
225.4577225732964         0.9192732594281329
225.9910592574525         0.9192134169433235
226.45772257329634        0.9191676294357288
227.02336440600004        0.9191157255099451
227.4546591042003         0.9190758676302454
228.02251197131994        0.9190245568504115
228.4547399398383         0.9189843024361668
228.9910592574522         0.918929147042398
229.45772257329605        0.9188829538252761
229.99105925745215        0.9188332959905534
230.45772257329594        0.918784645094912
230.99105925745204        0.918735659213146
231.45772257329588        0.9186927521151279
231.99105925745198        0.9186473826364296
232.4577225732957         0.9186061756462188
232.99105925745192        0.9185566272785006
233.45772257329565        0.918515025385626
233.9910592574518         0.9184648021853687
234.4577225732956         0.9184217206894034
234.9974074555343         0.918377749443084
235.43766135995128        0.9183381152328374
236.01199700805358        0.9182845931558583
236.4592353722133         0.9182470193700831
237.00929284268585        0.9181976764802162
237.47202384467852        0.9181630415883735
237.9939420934283         0.9181132895962436
238.45436517661375        0.9180753335017888
238.9651077283189         0.9180286018232144
239.45772257329526        0.9179821821805133
239.99105925745135        0.9179329943560983
240.45772257329514        0.9178910625900099
240.99294687599627        0.9178449362552398
241.4324283799067         0.9178057291922554
241.99262298011558        0.9177449053952207
242.4747744573756         0.9177051626452657
242.98836463649786        0.9176677236542519
243.47438469276665        0.917622532270149
243.98165764849432        0.9175747926305123
244.46182300211086        0.9175308126888002
244.97630314021956        0.9174858325417866
245.4692694250262         0.9174372372224986
245.99224363718412        0.9173895706212399
246.4577225732947         0.9173392455283111
246.9910592574508         0.9172874125099435
247.46180157999743        0.9172455778781523
247.9913594618289         0.9171913316532937
248.45570697095985        0.917150858045604
248.97298907946043        0.9171084228000731
249.42430534973084        0.9170650861230514
249.9946918769271         0.9170077944904638
250.44387092555377        0.9169686331333211
250.9786997520049         0.9169127529736426
251.45519099118206        0.9168639294429854
252.0145895053069         0.9168173586922598
252.4392189753837         0.9167764964303777
253.0304734451194         0.916723411717431
253.43750032824164        0.9166864948585947
253.98105226352862        0.9166348554367642
254.3892581371278         0.9165990862815125
255.0208399425647         0.9165361435433703
255.45984561686288        0.9164948771546798
256.01426794908036        0.9164447382528952
256.4468072729809         0.9164004938467999
256.99105925744993        0.9163412607911668
257.4577225732937         0.9162994351244858
257.9910592574498         0.9162495879577858
258.45772257329367        0.9162063903252293
258.99105925744976        0.9161578240515981
259.4585808880951         0.916118670168129
259.9714129590841         0.9160727212710401
260.45857231981216        0.9160215262507572
260.9716090818108         0.9159754190929544
261.4575577015956         0.9159195470650335
261.9826835761355         0.9158673111917207
262.4908140280381         0.9158235649991742
262.99644904316625        0.9157750491164726
263.45772257329327        0.915725338816815
263.99979064141326        0.915682162837614
264.43412043941134        0.9156404175615147
265.0240396718987         0.9155831145538839
265.454575855097          0.9155384903342252
266.0198130263592         0.9154825810647816
266.44574995121263        0.9154481462369739
266.97913889320245        0.9153866393199547
267.4612459913644         0.9153457175503708
267.95689404330346        0.9152968859653521
268.46214912426115        0.915240755275924
268.9920472986279         0.915190620583487
269.47794933283456        0.9151459612086579
269.9934642826674         0.9150968395444646
270.4739816458317         0.9150533228485546
270.9859611045398         0.9150049147011489
271.46928539052755        0.9149591170924205
271.98770219302406        0.9149075741302787
272.46720541803217        0.9148619308716052
272.98830607714024        0.9148116046450805
273.46460430096806        0.9147654292924268
273.98937596095834        0.914721439268676
274.41941806726777        0.9146776011512228
274.99075825615466        0.9146209377006659
275.4258111724729         0.9145819409770163
275.9915306070181         0.9145142721550065
276.45772257329224        0.914469569475038
276.9910592574483         0.9144210544111887
277.4577225732922         0.9143745785374695
277.9910592574482         0.9143231119060491
278.4610583858416         0.9142786850531698
278.98010666417184        0.914229018012332
279.457722573292          0.9141763670680005
279.99105925744806        0.9141188774602967
280.4647938937066         0.9140683305895998
280.9905504202415         0.9140175302272003
281.47253981505463        0.9139718424339626
281.99522034247263        0.9139267303414995
282.4388457864437         0.9138775343074779
282.9977811690259         0.9138210282806157
283.44661478442447        0.913771107721868
283.99937025258373        0.9137074866964866
284.4763659372411         0.913664128355125
284.9844434674851         0.9136117925738033
285.4304424613059         0.9135586678392436
286.0493244917489         0.9134988162673932
286.44310990957894        0.9134665271088979
287.07463431354967        0.9134062457925631
287.4650703742021         0.9133687048089048
287.9910592574473         0.9133003822529302
288.4577225732912         0.9132520347691222
288.9910592574473         0.9131981567717559
289.4577225732911         0.9131506922819455
289.9966710511189         0.9130932200254873
290.4581459756832         0.9130533459563208
290.95768295384295        0.9130082327593827
291.45772257329094        0.9129470210433038
292.00869750939194        0.9129018442077869
292.4479931365202         0.912853246116013
293.0029759079294         0.9127945706106266
293.43529195345303        0.9127435751409196
293.9979358145842         0.9126856915976996
294.45499909808956        0.9126536443567183
294.96463319854547        0.9126017898826819
295.4577225732906         0.9125436258497133
295.9910592574467         0.912485497500777
296.4848415986596         0.9124437653329692
296.9792025527129         0.9123864004581779
297.4586411147657         0.912327777844403
298.02668634685006        0.9122621369465163
298.4608835739945         0.9122108313246298
299.0303906282406         0.9121579381508791
299.35883617978624        0.9121391729502151
299.9842771216024         0.9120656503773737
300.4578936986619         0.9120123845583712
301.0087384945772         0.9119634396492408
301.45238161911163        0.9119203669775
301.99105925744624        0.911864543523901
302.45772257329           0.911818600439589
303.0040480719222         0.9117691004456171
303.4565260077548         0.9117254823974335
303.9979239795891         0.9116767715315552
304.44060533042955        0.9116329778053883
304.991059257446          0.9115756929976387
305.4577225732898         0.9115280264293516
305.9910592574459         0.9114776736325542
306.4577225732897         0.9114286056924226
306.9910592574458         0.911374188731527
307.4408088423372         0.9113225917900956
307.9790944593595         0.9112722916009374
308.4521856405023         0.9112253644137016
308.96699296960446        0.9111762531189966
309.47071683735925        0.9111292816808961
309.98484663986574        0.9110802001210518
310.47902221163355        0.9110359754778656
310.9868070265863         0.9109877384176244
311.46993506811333        0.9109393149567274
311.9865458035148         0.910887970244545
312.4692323356454         0.9108420984039087
312.9868055170839         0.9107903226705624
313.4577225732892         0.9107410385338142
313.9910592574453         0.9106878246705837
314.45772257328906        0.9106441087681583
314.9910592574453         0.910589827771671
315.45772257328895        0.9105450549475975
315.99105925744516        0.9104904305141086
316.45772257328895        0.9104450423554694
316.99105925744504        0.9103892874058782
317.45772257328883        0.9103428899467862
318.0009116562678         0.9102884580636509
318.4588644918367         0.9102425894750615
319.00449973144976        0.9101777392616958
319.4766655013185         0.9101267201304453
320.0079042678617         0.9100857150280917
320.45084971710116        0.9100378117130258
320.99223324379284        0.9099825685378212
321.44077913579906        0.9099321171557999
322.00331080666535        0.909872420385608
322.4672152142314         0.9098292651297193
323.00690887768485        0.9097743778924272
323.46007892098453        0.9097225577353033
323.9959541102045         0.909661284511425
324.4571360174866         0.9096144674549106
324.9803575170125         0.9095469837126267
325.482501646512          0.9094954083711384
325.9814232662693         0.9094393697356493
326.47157611034595        0.9093802635607822
326.999995050042          0.9093229040560599
327.45912571218037        0.9092735448844714
327.99105925744414        0.9092150751247955
328.4577225732879         0.9091641989782925